 Entering Gaussian System, Link 0=/opt/g09/g09
 Initial command:
 /opt/g09/l1.exe /tmp/Gau-24166.inp -scrdir=/tmp/
 Entering Link 1 = /opt/g09/l1.exe PID=     24168.
  
 Copyright (c) 1988,1990,1992,1993,1995,1998,2003,2009,2011,
            Gaussian, Inc.  All Rights Reserved.
  
 This is part of the Gaussian(R) 09 program.  It is based on
 the Gaussian(R) 03 system (copyright 2003, Gaussian, Inc.),
 the Gaussian(R) 98 system (copyright 1998, Gaussian, Inc.),
 the Gaussian(R) 94 system (copyright 1995, Gaussian, Inc.),
 the Gaussian 92(TM) system (copyright 1992, Gaussian, Inc.),
 the Gaussian 90(TM) system (copyright 1990, Gaussian, Inc.),
 the Gaussian 88(TM) system (copyright 1988, Gaussian, Inc.),
 the Gaussian 86(TM) system (copyright 1986, Carnegie Mellon
 University), and the Gaussian 82(TM) system (copyright 1983,
 Carnegie Mellon University). Gaussian is a federally registered
 trademark of Gaussian, Inc.
  
 This software contains proprietary and confidential information,
 including trade secrets, belonging to Gaussian, Inc.
  
 This software is provided under written license and may be
 used, copied, transmitted, or stored only in accord with that
 written license.
  
 The following legend is applicable only to US Government
 contracts under FAR:
  
                    RESTRICTED RIGHTS LEGEND
  
 Use, reproduction and disclosure by the US Government is
 subject to restrictions as set forth in subparagraphs (a)
 and (c) of the Commercial Computer Software - Restricted
 Rights clause in FAR 52.227-19.
  
 Gaussian, Inc.
 340 Quinnipiac St., Bldg. 40, Wallingford CT 06492
  
  
 ---------------------------------------------------------------
 Warning -- This program may not be used in any manner that
 competes with the business of Gaussian, Inc. or will provide
 assistance to any competitor of Gaussian, Inc.  The licensee
 of this program is prohibited from giving any competitor of
 Gaussian, Inc. access to this program.  By using this program,
 the user acknowledges that Gaussian, Inc. is engaged in the
 business of creating and licensing software in the field of
 computational chemistry and represents and warrants to the
 licensee that it is not a competitor of Gaussian, Inc. and that
 it will not use this program in any manner prohibited above.
 ---------------------------------------------------------------
  

 Cite this work as:
 Gaussian 09, Revision C.01,
 M. J. Frisch, G. W. Trucks, H. B. Schlegel, G. E. Scuseria, 
 M. A. Robb, J. R. Cheeseman, G. Scalmani, V. Barone, B. Mennucci, 
 G. A. Petersson, H. Nakatsuji, M. Caricato, X. Li, H. P. Hratchian, 
 A. F. Izmaylov, J. Bloino, G. Zheng, J. L. Sonnenberg, M. Hada, 
 M. Ehara, K. Toyota, R. Fukuda, J. Hasegawa, M. Ishida, T. Nakajima, 
 Y. Honda, O. Kitao, H. Nakai, T. Vreven, J. A. Montgomery, Jr., 
 J. E. Peralta, F. Ogliaro, M. Bearpark, J. J. Heyd, E. Brothers, 
 K. N. Kudin, V. N. Staroverov, T. Keith, R. Kobayashi, J. Normand, 
 K. Raghavachari, A. Rendell, J. C. Burant, S. S. Iyengar, J. Tomasi, 
 M. Cossi, N. Rega, J. M. Millam, M. Klene, J. E. Knox, J. B. Cross, 
 V. Bakken, C. Adamo, J. Jaramillo, R. Gomperts, R. E. Stratmann, 
 O. Yazyev, A. J. Austin, R. Cammi, C. Pomelli, J. W. Ochterski, 
 R. L. Martin, K. Morokuma, V. G. Zakrzewski, G. A. Voth, 
 P. Salvador, J. J. Dannenberg, S. Dapprich, A. D. Daniels, 
 O. Farkas, J. B. Foresman, J. V. Ortiz, J. Cioslowski, 
 and D. J. Fox, Gaussian, Inc., Wallingford CT, 2010.
 
 ******************************************
 Gaussian 09:  EM64L-G09RevC.01 23-Sep-2011
                 6-Oct-2015 
 ******************************************
 %mem=40GB
 %nprocshared=23
 Will use up to   23 processors via shared memory.
 %chk=1_hf6311_nmr.chk
 ----------------------------
 # nmr=giao rhf/6-311+g(2d,p)
 ----------------------------
 1/38=1/1;
 2/12=2,17=6,18=5,40=1/2;
 3/5=4,6=6,7=112,11=1,16=1,25=1,30=1,116=1/1,2,8,3;
 4//1;
 5/5=2,38=5/2;
 8/6=1,10=90,11=11/1;
 10/13=100,45=16/2;
 6/7=2,8=2,9=2,10=2,28=1/1;
 99/9=1/99;
 -------------------
 Title Card Required
 -------------------
 Charge =  0 Multiplicity = 1
 Symbolic Z-Matrix:
 C                     0.6366   -1.44641  -0.12346 
 C                     1.92911  -0.72735   0.23971 
 C                     1.89942   0.69394  -0.30419 
 C                     0.62997   1.4036    0.13605 
 C                    -0.60942  -0.66574   0.29846 
 H                     2.76358   1.25715   0.03601 
 H                     2.0378   -0.69885   1.32242 
 H                     2.78607  -1.27118  -0.14592 
 H                     0.59605  -1.60164  -1.199 
 H                     0.60924  -2.42684   0.34236 
 H                     0.65443   1.54807   1.22365 
 H                     0.593     2.39085  -0.30956 
 H                    -0.6121   -0.60302   1.39503 
 H                     1.93323   0.67319  -1.38998 
 C                    -1.85915  -1.43121  -0.12806 
 H                    -1.77927  -2.46415   0.19311 
 H                    -2.7647   -1.02896   0.30773 
 H                    -1.96319  -1.41838  -1.20833 
 C                    -1.74413   1.47037   0.0393 
 H                    -2.62611   1.04593  -0.41765 
 H                    -1.92591   1.56338   1.11527 
 H                    -1.62003   2.46786  -0.36353 
 N                    -0.56807   0.68334  -0.26406 
 
                          Input orientation:                          
 ---------------------------------------------------------------------
 Center     Atomic      Atomic             Coordinates (Angstroms)
 Number     Number       Type             X           Y           Z
 ---------------------------------------------------------------------
      1          6           0        0.636596   -1.446407   -0.123460
      2          6           0        1.929107   -0.727348    0.239711
      3          6           0        1.899424    0.693938   -0.304193
      4          6           0        0.629965    1.403603    0.136048
      5          6           0       -0.609419   -0.665740    0.298464
      6          1           0        2.763577    1.257153    0.036013
      7          1           0        2.037797   -0.698854    1.322420
      8          1           0        2.786072   -1.271179   -0.145920
      9          1           0        0.596051   -1.601637   -1.199003
     10          1           0        0.609244   -2.426842    0.342355
     11          1           0        0.654429    1.548071    1.223648
     12          1           0        0.593004    2.390852   -0.309556
     13          1           0       -0.612102   -0.603016    1.395025
     14          1           0        1.933234    0.673185   -1.389975
     15          6           0       -1.859145   -1.431205   -0.128063
     16          1           0       -1.779265   -2.464146    0.193106
     17          1           0       -2.764698   -1.028964    0.307734
     18          1           0       -1.963190   -1.418381   -1.208333
     19          6           0       -1.744128    1.470366    0.039300
     20          1           0       -2.626107    1.045932   -0.417650
     21          1           0       -1.925905    1.563376    1.115270
     22          1           0       -1.620028    2.467864   -0.363530
     23          7           0       -0.568074    0.683336   -0.264064
 ---------------------------------------------------------------------
                    Distance matrix (angstroms):
                    1          2          3          4          5
     1  C    0.000000
     2  C    1.522998   0.000000
     3  C    2.491681   1.522093   0.000000
     4  C    2.861808   2.497893   1.519527   0.000000
     5  C    1.529710   2.539953   2.916541   2.417567   0.000000
     6  H    3.443649   2.162424   1.086145   2.140971   3.891465
     7  H    2.147736   1.088524   2.145900   2.794601   2.838545
     8  H    2.156724   1.085750   2.161684   3.447138   3.477556
     9  H    1.087443   2.147398   2.787316   3.288614   2.138099
    10  H    1.085811   2.154264   3.438293   3.836053   2.142089
    11  H    3.283583   2.787556   2.147988   1.097426   2.711870
    12  H    3.842016   3.436573   2.141560   1.083785   3.340399
    13  H    2.139241   2.794271   3.298059   2.674747   1.098357
    14  H    2.788907   2.148810   1.086506   2.135595   3.332961
    15  C    2.495792   3.870598   4.321353   3.781740   1.526328
    16  H    2.640529   4.095200   4.873762   4.557096   2.148000
    17  H    3.453837   4.703978   5.009679   4.179784   2.185691
    18  H    2.817201   4.210028   4.494346   4.061454   2.160926
    19  C    3.768541   4.285180   3.741163   2.377001   2.432628
    20  H    4.116252   4.932202   4.540617   3.322125   2.740378
    21  H    4.142422   4.568932   4.171803   2.741692   2.714639
    22  H    4.524545   4.813485   3.941685   2.538641   3.358428
    23  N    2.450878   2.911998   2.467847   1.454019   1.462243
                    6          7          8          9         10
     6  H    0.000000
     7  H    2.451033   0.000000
     8  H    2.534969   1.744561   0.000000
     9  H    3.794221   3.041582   2.452423   0.000000
    10  H    4.278646   2.446882   2.512479   1.748406   0.000000
    11  H    2.437953   2.640480   3.790487   3.974079   4.071689
    12  H    2.473071   3.781145   4.271627   4.090366   4.861628
    13  H    4.086851   2.652625   3.790586   3.030818   2.434367
    14  H    1.750408   3.041465   2.460804   2.645627   3.789998
    15  C    5.350117   4.222132   4.648007   2.684017   2.702874
    16  H    5.874535   4.354488   4.730794   2.885137   2.393458
    17  H    5.988488   4.919606   5.574542   3.727311   3.652225
    18  H    5.572181   4.788562   4.868868   2.565811   3.168445
    19  C    4.512746   4.544763   5.298404   4.055494   4.562722
    20  H    5.412866   5.274858   5.893600   4.242928   4.806793
    21  H    4.821806   4.568537   5.641634   4.661913   4.790221
    22  H    4.565244   5.123496   5.782864   4.708488   5.424581
    23  N    3.393996   3.349320   3.883862   2.729542   3.380389
                   11         12         13         14         15
    11  H    0.000000
    12  H    1.750648   0.000000
    13  H    2.502128   3.649811   0.000000
    14  H    3.038387   2.431851   3.982920   0.000000
    15  C    4.125683   4.544678   2.135605   4.516970   0.000000
    16  H    4.804453   5.426908   2.504133   5.111912   1.084665
    17  H    4.378406   4.832220   2.448939   5.277319   1.082471
    18  H    4.643953   4.674632   3.044295   4.426032   1.085345
    19  C    2.676153   2.535977   2.723671   4.025086   2.908669
    20  H    3.702421   3.490440   3.171914   4.676745   2.609272
    21  H    2.582654   3.009942   2.549038   4.686325   3.243123
    22  H    2.922038   2.215029   3.679502   4.110977   3.913484
    23  N    2.110821   2.065377   2.099813   2.743049   2.481259
                   16         17         18         19         20
    16  H    0.000000
    17  H    1.744696   0.000000
    18  H    1.758262   1.758556   0.000000
    19  C    3.937674   2.712982   3.154273   0.000000
    20  H    3.662078   2.202404   2.671606   1.080201   0.000000
    21  H    4.134347   2.841815   3.780396   1.095174   1.762917
    22  H    4.965876   3.740143   3.991786   1.082901   1.742703
    23  N    3.403326   2.843252   2.693549   1.447256   2.095367
                   21         22         23
    21  H    0.000000
    22  H    1.760258   0.000000
    23  N    2.126203   2.073895   0.000000
 Stoichiometry    C7H15N
 Framework group  C1[X(C7H15N)]
 Deg. of freedom    63
 Full point group                 C1      NOp   1
 Largest Abelian subgroup         C1      NOp   1
 Largest concise Abelian subgroup C1      NOp   1
                         Standard orientation:                         
 ---------------------------------------------------------------------
 Center     Atomic      Atomic             Coordinates (Angstroms)
 Number     Number       Type             X           Y           Z
 ---------------------------------------------------------------------
      1          6           0       -0.636596    1.446407   -0.123460
      2          6           0       -1.929107    0.727348    0.239711
      3          6           0       -1.899424   -0.693938   -0.304193
      4          6           0       -0.629965   -1.403603    0.136048
      5          6           0        0.609419    0.665740    0.298464
      6          1           0       -2.763577   -1.257152    0.036013
      7          1           0       -2.037797    0.698854    1.322420
      8          1           0       -2.786072    1.271180   -0.145920
      9          1           0       -0.596051    1.601637   -1.199003
     10          1           0       -0.609244    2.426842    0.342355
     11          1           0       -0.654429   -1.548071    1.223648
     12          1           0       -0.593004   -2.390852   -0.309556
     13          1           0        0.612102    0.603016    1.395025
     14          1           0       -1.933234   -0.673185   -1.389975
     15          6           0        1.859145    1.431205   -0.128063
     16          1           0        1.779265    2.464146    0.193106
     17          1           0        2.764698    1.028964    0.307734
     18          1           0        1.963190    1.418381   -1.208333
     19          6           0        1.744128   -1.470366    0.039300
     20          1           0        2.626107   -1.045932   -0.417650
     21          1           0        1.925905   -1.563376    1.115270
     22          1           0        1.620027   -2.467864   -0.363530
     23          7           0        0.568074   -0.683336   -0.264064
 ---------------------------------------------------------------------
 Rotational constants (GHZ):      2.8093412      1.9858995      1.2590116
 Standard basis: 6-311+G(2d,p) (5D, 7F)
 There are   306 symmetry adapted basis functions of A   symmetry.
 Integral buffers will be    131072 words long.
 Raffenetti 1 integral format.
 Two-electron integral symmetry is turned on.
   306 basis functions,   456 primitive gaussians,   322 cartesian basis functions
    32 alpha electrons       32 beta electrons
       nuclear repulsion energy       420.3974630433 Hartrees.
 NAtoms=   23 NActive=   23 NUniq=   23 SFac= 1.00D+00 NAtFMM=   60 NAOKFM=F Big=F
 One-electron integrals computed using PRISM.
 NBasis=   306 RedAO= T  NBF=   306
 NBsUse=   306 1.00D-06 NBFU=   306
 Harris functional with IExCor=  205 diagonalized for initial guess.
 ExpMin= 4.38D-02 ExpMax= 6.29D+03 ExpMxC= 9.49D+02 IAcc=2 IRadAn=         4 AccDes= 0.00D+00
 HarFok:  IExCor=  205 AccDes= 0.00D+00 IRadAn=         4 IDoV= 1
 ScaDFX=  1.000000  1.000000  1.000000  1.000000
 FoFCou: FMM=F IPFlag=           0 FMFlag=      100000 FMFlg1=           0
         NFxFlg=           0 DoJE=T BraDBF=F KetDBF=T FulRan=T
         Omega=  0.000000  0.000000  1.000000  0.000000  0.000000 ICntrl=     500 IOpCl=  0
         NMat0=    1 NMatS0=    1 NMatT0=    0 NMatD0=    1 NMtDS0=    0 NMtDT0=    0
         I1Cent=           4 NGrid=           0.
 Petite list used in FoFCou.
 Initial guess orbital symmetries:
       Occupied  (A) (A) (A) (A) (A) (A) (A) (A) (A) (A) (A) (A)
                 (A) (A) (A) (A) (A) (A) (A) (A) (A) (A) (A) (A)
                 (A) (A) (A) (A) (A) (A) (A) (A)
       Virtual   (A) (A) (A) (A) (A) (A) (A) (A) (A) (A) (A) (A)
                 (A) (A) (A) (A) (A) (A) (A) (A) (A) (A) (A) (A)
                 (A) (A) (A) (A) (A) (A) (A) (A) (A) (A) (A) (A)
                 (A) (A) (A) (A) (A) (A) (A) (A) (A) (A) (A) (A)
                 (A) (A) (A) (A) (A) (A) (A) (A) (A) (A) (A) (A)
                 (A) (A) (A) (A) (A) (A) (A) (A) (A) (A) (A) (A)
                 (A) (A) (A) (A) (A) (A) (A) (A) (A) (A) (A) (A)
                 (A) (A) (A) (A) (A) (A) (A) (A) (A) (A) (A) (A)
                 (A) (A) (A) (A) (A) (A) (A) (A) (A) (A) (A) (A)
                 (A) (A) (A) (A) (A) (A) (A) (A) (A) (A) (A) (A)
                 (A) (A) (A) (A) (A) (A) (A) (A) (A) (A) (A) (A)
                 (A) (A) (A) (A) (A) (A) (A) (A) (A) (A) (A) (A)
                 (A) (A) (A) (A) (A) (A) (A) (A) (A) (A) (A) (A)
                 (A) (A) (A) (A) (A) (A) (A) (A) (A) (A) (A) (A)
                 (A) (A) (A) (A) (A) (A) (A) (A) (A) (A) (A) (A)
                 (A) (A) (A) (A) (A) (A) (A) (A) (A) (A) (A) (A)
                 (A) (A) (A) (A) (A) (A) (A) (A) (A) (A) (A) (A)
                 (A) (A) (A) (A) (A) (A) (A) (A) (A) (A) (A) (A)
                 (A) (A) (A) (A) (A) (A) (A) (A) (A) (A) (A) (A)
                 (A) (A) (A) (A) (A) (A) (A) (A) (A) (A) (A) (A)
                 (A) (A) (A) (A) (A) (A) (A) (A) (A) (A) (A) (A)
                 (A) (A) (A) (A) (A) (A) (A) (A) (A) (A) (A) (A)
                 (A) (A) (A) (A) (A) (A) (A) (A) (A) (A)
 The electronic state of the initial guess is 1-A.
 Requested convergence on RMS density matrix=1.00D-08 within 128 cycles.
 Requested convergence on MAX density matrix=1.00D-06.
 Requested convergence on             energy=1.00D-06.
 No special actions if energy rises.
 Keep R1 ints in memory in canonical form, NReq=1369369996.
 SCF Done:  E(RHF) =  -328.343405797     A.U. after   12 cycles
             Convg  =    0.9456D-08             -V/T =  2.0000
 Range of M.O.s used for correlation:     1   306
 NBasis=   306 NAE=    32 NBE=    32 NFC=     0 NFV=     0
 NROrb=    306 NOA=    32 NOB=    32 NVA=   274 NVB=   274

 **** Warning!!: The largest alpha MO coefficient is  0.10338702D+03

          Differentiating once with respect to magnetic field using GIAOs.
          Electric field/nuclear overlap derivatives assumed to be zero.
          Keep R3 ints in memory in canonical form, NReq=1353003806.
 FoFCou: FMM=F IPFlag=           0 FMFlag=           0 FMFlg1=           0
         NFxFlg=           0 DoJE=F BraDBF=F KetDBF=T FulRan=T
         Omega=  0.000000  0.000000  1.000000  0.000000  0.000000 ICntrl=    6100 IOpCl=  0
         NMat0=    1 NMatS0=    1 NMatT0=    0 NMatD0=    1 NMtDS0=    0 NMtDT0=    0
         I1Cent=           7 NGrid=          23.
 Symmetry not used in FoFCou.
          There are     3 degrees of freedom in the 1st order CPHF.  IDoFFX=0.
      3 vectors produced by pass  0 Test12= 2.92D-13 3.33D-08 XBig12= 1.11D+01 7.98D-01.
 AX will form     3 AO Fock derivatives at one time.
      3 vectors produced by pass  1 Test12= 2.92D-13 3.33D-08 XBig12= 1.43D-01 9.71D-02.
      3 vectors produced by pass  2 Test12= 2.92D-13 3.33D-08 XBig12= 1.27D-03 7.16D-03.
      3 vectors produced by pass  3 Test12= 2.92D-13 3.33D-08 XBig12= 1.17D-05 6.32D-04.
      3 vectors produced by pass  4 Test12= 2.92D-13 3.33D-08 XBig12= 1.28D-07 1.14D-04.
      3 vectors produced by pass  5 Test12= 2.92D-13 3.33D-08 XBig12= 2.49D-09 9.92D-06.
      3 vectors produced by pass  6 Test12= 2.92D-13 3.33D-08 XBig12= 3.47D-11 9.93D-07.
      3 vectors produced by pass  7 Test12= 2.92D-13 3.33D-08 XBig12= 4.61D-13 1.13D-07.
 Inverted reduced A of dimension    24 with in-core refinement.
 Calculating GIAO nuclear magnetic shielding tensors.
 SCF GIAO Magnetic shielding tensor (ppm):
      1  C    Isotropic =   161.3028   Anisotropy =    19.5528
   XX=   172.3532   YX=    -1.7135   ZX=     2.9862
   XY=    -6.7338   YY=   156.8916   ZY=    -3.9275
   XZ=     5.9085   YZ=     4.7302   ZZ=   154.6636
   Eigenvalues:   153.0059   156.5645   174.3380
      2  C    Isotropic =   170.3745   Anisotropy =     4.1012
   XX=   168.9725   YX=     1.8902   ZX=    -0.6468
   XY=    -0.3179   YY=   171.6231   ZY=    -0.0134
   XZ=     5.0583   YZ=    -3.5649   ZZ=   170.5279
   Eigenvalues:   166.8048   171.2101   173.1087
      3  C    Isotropic =   168.6485   Anisotropy =     5.4759
   XX=   170.7710   YX=    -0.0866   ZX=     2.3284
   XY=    -1.4583   YY=   168.2382   ZY=    -3.1530
   XZ=    -4.7784   YZ=    -6.1052   ZZ=   166.9364
   Eigenvalues:   162.6599   170.9865   172.2991
      4  C    Isotropic =   142.8594   Anisotropy =    41.3308
   XX=   162.7084   YX=    11.7074   ZX=    -5.5135
   XY=    16.8213   YY=   135.1515   ZY=    -7.9125
   XZ=    -8.2227   YZ=    -1.1374   ZZ=   130.7181
   Eigenvalues:   127.6301   130.5347   170.4132
      5  C    Isotropic =   141.7946   Anisotropy =    30.2927
   XX=   124.7385   YX=     0.0750   ZX=     0.7182
   XY=    -5.3862   YY=   157.2931   ZY=    11.0701
   XZ=    -6.0692   YZ=     6.7846   ZZ=   143.3523
   Eigenvalues:   124.2946   139.0995   161.9898
      6  H    Isotropic =    31.1876   Anisotropy =    11.2914
   XX=    35.7338   YX=     4.3937   ZX=    -1.0177
   XY=     4.6489   YY=    31.3212   ZY=    -0.3935
   XZ=    -1.5699   YZ=    -0.6863   ZZ=    26.5078
   Eigenvalues:    26.3275    28.5202    38.7152
      7  H    Isotropic =    31.3948   Anisotropy =     9.3059
   XX=    30.5435   YX=    -0.2841   ZX=    -4.3303
   XY=    -0.3122   YY=    28.7048   ZY=     1.7719
   XZ=    -3.7223   YZ=     1.4878   ZZ=    34.9361
   Eigenvalues:    27.7087    28.8769    37.5987
      8  H    Isotropic =    31.0179   Anisotropy =    11.3448
   XX=    35.7413   YX=    -4.1991   ZX=     1.5897
   XY=    -4.3722   YY=    30.9021   ZY=    -0.8393
   XZ=     2.0050   YZ=    -1.0476   ZZ=    26.4103
   Eigenvalues:    26.0689    28.4037    38.5811
      9  H    Isotropic =    31.4243   Anisotropy =     7.1764
   XX=    30.7701   YX=     0.0245   ZX=     0.5422
   XY=     0.3895   YY=    30.0832   ZY=    -4.5212
   XZ=     0.4874   YZ=    -3.7065   ZZ=    33.4197
   Eigenvalues:    27.2520    30.8123    36.2085
     10  H    Isotropic =    31.2771   Anisotropy =     9.3086
   XX=    30.4488   YX=    -0.1667   ZX=    -0.4637
   XY=    -0.1769   YY=    36.7188   ZY=     2.6304
   XZ=    -0.8150   YZ=     3.0572   ZZ=    26.6637
   Eigenvalues:    25.8433    30.5052    37.4828
     11  H    Isotropic =    30.7446   Anisotropy =     7.7963
   XX=    30.3677   YX=     1.0312   ZX=    -2.2423
   XY=     0.5883   YY=    29.9606   ZY=    -4.9850
   XZ=    -1.0159   YZ=    -3.6804   ZZ=    31.9055
   Eigenvalues:    26.4508    29.8409    35.9421
     12  H    Isotropic =    30.1515   Anisotropy =     8.7400
   XX=    29.8591   YX=     1.6952   ZX=     0.5358
   XY=     0.5858   YY=    35.2410   ZY=     2.3287
   XZ=     0.3725   YZ=     2.2159   ZZ=    25.3543
   Eigenvalues:    24.8488    29.6275    35.9781
     13  H    Isotropic =    30.9708   Anisotropy =     5.7185
   XX=    29.6212   YX=     0.5291   ZX=     0.8646
   XY=     0.8461   YY=    29.0488   ZY=     2.5502
   XZ=     0.4026   YZ=     0.5139   ZZ=    34.2423
   Eigenvalues:    28.4088    29.7203    34.7831
     14  H    Isotropic =    31.0965   Anisotropy =     9.1565
   XX=    29.5083   YX=     0.2394   ZX=     3.8798
   XY=     0.2557   YY=    28.6633   ZY=     1.9852
   XZ=     3.1071   YZ=     1.9053   ZZ=    35.1179
   Eigenvalues:    27.4042    28.6846    37.2008
     15  C    Isotropic =   173.2626   Anisotropy =    29.6787
   XX=   182.3795   YX=    10.5314   ZX=    -5.9867
   XY=    14.2765   YY=   172.0067   ZY=    -2.5397
   XZ=   -10.3215   YZ=    -2.3141   ZZ=   165.4016
   Eigenvalues:   160.9462   165.7932   193.0484
     16  H    Isotropic =    31.7359   Anisotropy =    10.0276
   XX=    30.7242   YX=     2.9164   ZX=     0.2542
   XY=     2.3535   YY=    37.0462   ZY=     2.2404
   XZ=     0.3890   YZ=     2.0942   ZZ=    27.4374
   Eigenvalues:    26.9527    29.8341    38.4210
     17  H    Isotropic =    31.1853   Anisotropy =     9.4810
   XX=    36.8861   YX=    -0.3393   ZX=     2.9679
   XY=     1.0163   YY=    29.9713   ZY=    -0.6697
   XZ=     2.1908   YZ=    -0.6666   ZZ=    26.6986
   Eigenvalues:    25.9507    30.0993    37.5060
     18  H    Isotropic =    31.6386   Anisotropy =     8.7832
   XX=    30.6027   YX=     1.4706   ZX=    -3.6169
   XY=     1.5032   YY=    29.2728   ZY=    -2.1764
   XZ=    -2.9470   YZ=    -1.7129   ZZ=    35.0404
   Eigenvalues:    28.2987    29.1231    37.4941
     19  C    Isotropic =   155.0185   Anisotropy =    55.2658
   XX=   172.5034   YX=   -23.7933   ZX=     5.7018
   XY=   -27.8156   YY=   153.0850   ZY=    -3.3625
   XZ=    11.4512   YZ=    -2.9568   ZZ=   139.4670
   Eigenvalues:   133.9583   139.2348   191.8623
     20  H    Isotropic =    30.0125   Anisotropy =     9.6529
   XX=    35.5234   YX=    -0.5464   ZX=    -3.2426
   XY=    -2.3114   YY=    29.2365   ZY=    -0.3009
   XZ=    -2.2411   YZ=    -0.3796   ZZ=    25.2777
   Eigenvalues:    24.4903    29.0995    36.4478
     21  H    Isotropic =    30.9039   Anisotropy =     9.9708
   XX=    30.8858   YX=    -2.7456   ZX=     4.7237
   XY=    -2.5320   YY=    29.5474   ZY=    -3.5625
   XZ=     3.2248   YZ=    -2.2799   ZZ=    32.2785
   Eigenvalues:    27.4489    27.7117    37.5511
     22  H    Isotropic =    30.5504   Anisotropy =    10.4842
   XX=    29.5210   YX=    -4.4266   ZX=    -0.4714
   XY=    -2.7487   YY=    35.1679   ZY=     2.9496
   XZ=    -0.2400   YZ=     2.4241   ZZ=    26.9623
   Eigenvalues:    25.9580    28.1533    37.5399
     23  N    Isotropic =   218.7195   Anisotropy =    29.4604
   XX=   211.0855   YX=     4.6315   ZX=    -1.0585
   XY=    19.0780   YY=   232.6244   ZY=     3.2093
   XZ=     7.8306   YZ=     1.5557   ZZ=   212.4486
   Eigenvalues:   205.1786   212.6202   238.3598
 End of Minotr Frequency-dependent properties file   721 does not exist.
 End of Minotr Frequency-dependent properties file   722 does not exist.

 **********************************************************************

            Population analysis using the SCF density.

 **********************************************************************

 Orbital symmetries:
       Occupied  (A) (A) (A) (A) (A) (A) (A) (A) (A) (A) (A) (A)
                 (A) (A) (A) (A) (A) (A) (A) (A) (A) (A) (A) (A)
                 (A) (A) (A) (A) (A) (A) (A) (A)
       Virtual   (A) (A) (A) (A) (A) (A) (A) (A) (A) (A) (A) (A)
                 (A) (A) (A) (A) (A) (A) (A) (A) (A) (A) (A) (A)
                 (A) (A) (A) (A) (A) (A) (A) (A) (A) (A) (A) (A)
                 (A) (A) (A) (A) (A) (A) (A) (A) (A) (A) (A) (A)
                 (A) (A) (A) (A) (A) (A) (A) (A) (A) (A) (A) (A)
                 (A) (A) (A) (A) (A) (A) (A) (A) (A) (A) (A) (A)
                 (A) (A) (A) (A) (A) (A) (A) (A) (A) (A) (A) (A)
                 (A) (A) (A) (A) (A) (A) (A) (A) (A) (A) (A) (A)
                 (A) (A) (A) (A) (A) (A) (A) (A) (A) (A) (A) (A)
                 (A) (A) (A) (A) (A) (A) (A) (A) (A) (A) (A) (A)
                 (A) (A) (A) (A) (A) (A) (A) (A) (A) (A) (A) (A)
                 (A) (A) (A) (A) (A) (A) (A) (A) (A) (A) (A) (A)
                 (A) (A) (A) (A) (A) (A) (A) (A) (A) (A) (A) (A)
                 (A) (A) (A) (A) (A) (A) (A) (A) (A) (A) (A) (A)
                 (A) (A) (A) (A) (A) (A) (A) (A) (A) (A) (A) (A)
                 (A) (A) (A) (A) (A) (A) (A) (A) (A) (A) (A) (A)
                 (A) (A) (A) (A) (A) (A) (A) (A) (A) (A) (A) (A)
                 (A) (A) (A) (A) (A) (A) (A) (A) (A) (A) (A) (A)
                 (A) (A) (A) (A) (A) (A) (A) (A) (A) (A) (A) (A)
                 (A) (A) (A) (A) (A) (A) (A) (A) (A) (A) (A) (A)
                 (A) (A) (A) (A) (A) (A) (A) (A) (A) (A) (A) (A)
                 (A) (A) (A) (A) (A) (A) (A) (A) (A) (A) (A) (A)
                 (A) (A) (A) (A) (A) (A) (A) (A) (A) (A)
 The electronic state is 1-A.
 Alpha  occ. eigenvalues --  -15.53681 -11.24541 -11.23631 -11.23194 -11.21003
 Alpha  occ. eigenvalues --  -11.20836 -11.20776 -11.20470  -1.23387  -1.07235
 Alpha  occ. eigenvalues --   -1.04156  -0.94825  -0.91829  -0.84310  -0.80725
 Alpha  occ. eigenvalues --   -0.75168  -0.65204  -0.63652  -0.62054  -0.61040
 Alpha  occ. eigenvalues --   -0.59721  -0.55789  -0.54178  -0.53553  -0.52257
 Alpha  occ. eigenvalues --   -0.51256  -0.49868  -0.47599  -0.46298  -0.44145
 Alpha  occ. eigenvalues --   -0.43227  -0.34771
 Alpha virt. eigenvalues --    0.07226   0.07614   0.07958   0.08535   0.09787
 Alpha virt. eigenvalues --    0.10093   0.11112   0.11308   0.11775   0.13404
 Alpha virt. eigenvalues --    0.13802   0.14389   0.14854   0.15454   0.15870
 Alpha virt. eigenvalues --    0.16168   0.17930   0.18714   0.20038   0.20487
 Alpha virt. eigenvalues --    0.20554   0.21672   0.22277   0.23186   0.24172
 Alpha virt. eigenvalues --    0.24908   0.25777   0.27976   0.29586   0.30907
 Alpha virt. eigenvalues --    0.31869   0.32556   0.33563   0.33849   0.35062
 Alpha virt. eigenvalues --    0.35884   0.36212   0.36511   0.37363   0.39383
 Alpha virt. eigenvalues --    0.39464   0.39857   0.40520   0.41794   0.42058
 Alpha virt. eigenvalues --    0.42513   0.43133   0.43519   0.45077   0.45369
 Alpha virt. eigenvalues --    0.46335   0.47081   0.47294   0.49511   0.52275
 Alpha virt. eigenvalues --    0.55348   0.56105   0.57339   0.57638   0.60205
 Alpha virt. eigenvalues --    0.62874   0.63917   0.66526   0.69196   0.71004
 Alpha virt. eigenvalues --    0.72663   0.73086   0.73774   0.76731   0.77500
 Alpha virt. eigenvalues --    0.77978   0.79041   0.79882   0.80579   0.83417
 Alpha virt. eigenvalues --    0.84343   0.85323   0.86218   0.87609   0.87830
 Alpha virt. eigenvalues --    0.88121   0.89122   0.90162   0.91147   0.91642
 Alpha virt. eigenvalues --    0.92321   0.94138   0.94832   0.95492   0.96712
 Alpha virt. eigenvalues --    0.96949   0.97985   0.98968   1.00038   1.01092
 Alpha virt. eigenvalues --    1.04059   1.07693   1.08606   1.11352   1.12105
 Alpha virt. eigenvalues --    1.13209   1.15109   1.16778   1.19106   1.21874
 Alpha virt. eigenvalues --    1.23792   1.24889   1.27338   1.28643   1.30780
 Alpha virt. eigenvalues --    1.33746   1.35750   1.37737   1.39109   1.40216
 Alpha virt. eigenvalues --    1.43936   1.46069   1.47325   1.48341   1.49596
 Alpha virt. eigenvalues --    1.50866   1.52020   1.54153   1.56000   1.58733
 Alpha virt. eigenvalues --    1.60321   1.61619   1.62582   1.63676   1.65591
 Alpha virt. eigenvalues --    1.67445   1.67776   1.69398   1.73484   1.74173
 Alpha virt. eigenvalues --    1.78815   1.80844   1.82002   1.84310   1.94194
 Alpha virt. eigenvalues --    1.95329   1.98643   2.04410   2.05009   2.08928
 Alpha virt. eigenvalues --    2.09668   2.10947   2.12551   2.16267   2.17424
 Alpha virt. eigenvalues --    2.18574   2.19202   2.23726   2.24999   2.28332
 Alpha virt. eigenvalues --    2.30323   2.32271   2.34375   2.39480   2.43657
 Alpha virt. eigenvalues --    2.49252   2.50721   2.53478   2.54483   2.56846
 Alpha virt. eigenvalues --    2.60293   2.61864   2.62851   2.64529   2.66348
 Alpha virt. eigenvalues --    2.66648   2.67459   2.69540   2.70770   2.71736
 Alpha virt. eigenvalues --    2.72451   2.73651   2.75006   2.76424   2.77277
 Alpha virt. eigenvalues --    2.80658   2.82583   2.85636   2.86233   2.89163
 Alpha virt. eigenvalues --    2.91392   2.95083   3.01138   3.07123   3.07541
 Alpha virt. eigenvalues --    3.08690   3.09365   3.11082   3.16431   3.19808
 Alpha virt. eigenvalues --    3.20779   3.22453   3.24804   3.26936   3.29994
 Alpha virt. eigenvalues --    3.31036   3.33030   3.40340   3.46572   3.54811
 Alpha virt. eigenvalues --    3.58586   3.61896   3.64805   3.68699   3.70895
 Alpha virt. eigenvalues --    3.73723   3.75547   3.75711   3.77917   3.79441
 Alpha virt. eigenvalues --    3.81817   3.82940   3.84809   3.85782   3.88535
 Alpha virt. eigenvalues --    3.89232   3.90592   3.93559   3.94737   3.95299
 Alpha virt. eigenvalues --    3.96422   3.99808   4.01165   4.01990   4.03067
 Alpha virt. eigenvalues --    4.04166   4.05427   4.08227   4.10211   4.11762
 Alpha virt. eigenvalues --    4.13920   4.15438   4.17723   4.22181   4.23897
 Alpha virt. eigenvalues --    4.27231   4.36145   4.39828   4.40871   4.49589
 Alpha virt. eigenvalues --    4.63077   4.65284   4.66601   4.68156   4.69755
 Alpha virt. eigenvalues --    4.69989   4.72410   4.74428   4.76775   4.85959
 Alpha virt. eigenvalues --    4.91754   4.96089   5.01607   5.04419   5.55825
 Alpha virt. eigenvalues --    5.58566   5.77796   5.80261   5.85302   6.04925
 Alpha virt. eigenvalues --    6.10174  25.05093  25.12315  25.16540  25.20133
 Alpha virt. eigenvalues --   25.22259  25.28124  25.36085  37.06021
          Condensed to atoms (all electrons):
              1          2          3          4          5          6
     1  C    6.345121  -0.412684  -0.116462   0.202319  -0.589824   0.022256
     2  C   -0.412684   5.868925  -0.180898   0.064362   0.327950  -0.056379
     3  C   -0.116462  -0.180898   5.966582  -0.207952   0.275483   0.460949
     4  C    0.202319   0.064362  -0.207952   5.626051  -0.632142  -0.049941
     5  C   -0.589824   0.327950   0.275483  -0.632142   6.270768  -0.009425
     6  H    0.022256  -0.056379   0.460949  -0.049941  -0.009425   0.575218
     7  H   -0.066735   0.515048  -0.052192  -0.016800  -0.006067  -0.006696
     8  H   -0.045791   0.457816  -0.046626   0.010211   0.010184  -0.003326
     9  H    0.511548  -0.043751  -0.016026   0.005728  -0.087423  -0.000092
    10  H    0.430059  -0.012769   0.010118  -0.004658  -0.035954  -0.000264
    11  H    0.008560   0.012012  -0.101895   0.481722  -0.031843  -0.004226
    12  H   -0.011622   0.014880  -0.029898   0.445864   0.019353  -0.004244
    13  H   -0.071213  -0.002904  -0.006660   0.024069   0.421864   0.000008
    14  H   -0.029104  -0.042900   0.531613  -0.092447   0.008823  -0.038852
    15  C    0.208817  -0.227446   0.025112  -0.065502  -0.158756   0.001562
    16  H   -0.015220  -0.000111   0.002833  -0.000397  -0.062887  -0.000001
    17  H    0.018243   0.006717  -0.002188   0.002151  -0.008650  -0.000003
    18  H   -0.033444  -0.001440  -0.005087   0.005388  -0.004594   0.000000
    19  C   -0.059962   0.025981  -0.078901  -0.081797  -0.115956   0.000240
    20  H   -0.010478   0.000618   0.005149  -0.000388   0.018113   0.000009
    21  H    0.005244  -0.003605  -0.001982  -0.016327  -0.033375   0.000045
    22  H    0.001010   0.001462  -0.002517   0.006242   0.013543  -0.000058
    23  N   -0.025648  -0.023758  -0.080192   0.277289   0.220981   0.008496
              7          8          9         10         11         12
     1  C   -0.066735  -0.045791   0.511548   0.430059   0.008560  -0.011622
     2  C    0.515048   0.457816  -0.043751  -0.012769   0.012012   0.014880
     3  C   -0.052192  -0.046626  -0.016026   0.010118  -0.101895  -0.029898
     4  C   -0.016800   0.010211   0.005728  -0.004658   0.481722   0.445864
     5  C   -0.006067   0.010184  -0.087423  -0.035954  -0.031843   0.019353
     6  H   -0.006696  -0.003326  -0.000092  -0.000264  -0.004226  -0.004244
     7  H    0.558686  -0.037768   0.005383  -0.007668  -0.000537  -0.000159
     8  H   -0.037768   0.574470  -0.006346  -0.004536  -0.000286  -0.000234
     9  H    0.005383  -0.006346   0.547858  -0.038754  -0.000169  -0.000062
    10  H   -0.007668  -0.004536  -0.038754   0.575418  -0.000009   0.000108
    11  H   -0.000537  -0.000286  -0.000169  -0.000009   0.592380  -0.043454
    12  H   -0.000159  -0.000234  -0.000062   0.000108  -0.043454   0.586073
    13  H   -0.000125  -0.000225   0.006606  -0.004736   0.007827  -0.000573
    14  H    0.005351  -0.005928   0.000202  -0.000096   0.006395  -0.006062
    15  C    0.000712  -0.000848  -0.000921  -0.023745   0.002839  -0.001859
    16  H    0.000060  -0.000035   0.000224   0.002029   0.000019   0.000016
    17  H   -0.000014   0.000008  -0.000248  -0.000243   0.000014  -0.000012
    18  H   -0.000009   0.000005   0.002422   0.000548   0.000029  -0.000016
    19  C   -0.000043  -0.001210   0.000673  -0.000184   0.005061  -0.012501
    20  H    0.000002  -0.000003   0.000009  -0.000018  -0.000790   0.000467
    21  H   -0.000043  -0.000003   0.000027   0.000045   0.009962  -0.001172
    22  H    0.000001  -0.000002  -0.000014   0.000012  -0.001485   0.003989
    23  N   -0.003537  -0.004626  -0.006053   0.008287  -0.034603  -0.057694
             13         14         15         16         17         18
     1  C   -0.071213  -0.029104   0.208817  -0.015220   0.018243  -0.033444
     2  C   -0.002904  -0.042900  -0.227446  -0.000111   0.006717  -0.001440
     3  C   -0.006660   0.531613   0.025112   0.002833  -0.002188  -0.005087
     4  C    0.024069  -0.092447  -0.065502  -0.000397   0.002151   0.005388
     5  C    0.421864   0.008823  -0.158756  -0.062887  -0.008650  -0.004594
     6  H    0.000008  -0.038852   0.001562  -0.000001  -0.000003   0.000000
     7  H   -0.000125   0.005351   0.000712   0.000060  -0.000014  -0.000009
     8  H   -0.000225  -0.005928  -0.000848  -0.000035   0.000008   0.000005
     9  H    0.006606   0.000202  -0.000921   0.000224  -0.000248   0.002422
    10  H   -0.004736  -0.000096  -0.023745   0.002029  -0.000243   0.000548
    11  H    0.007827   0.006395   0.002839   0.000019   0.000014   0.000029
    12  H   -0.000573  -0.006062  -0.001859   0.000016  -0.000012  -0.000016
    13  H    0.621887  -0.000177  -0.039801  -0.003338  -0.006368   0.005990
    14  H   -0.000177   0.551408  -0.000218   0.000008   0.000010  -0.000002
    15  C   -0.039801  -0.000218   5.756836   0.443647   0.385739   0.434993
    16  H   -0.003338   0.000008   0.443647   0.552094  -0.025668  -0.027575
    17  H   -0.006368   0.000010   0.385739  -0.025668   0.560846  -0.029535
    18  H    0.005990  -0.000002   0.434993  -0.027575  -0.029535   0.513860
    19  C    0.009138  -0.000951  -0.049801   0.002925  -0.008037  -0.004035
    20  H   -0.001743  -0.000007  -0.005614   0.000383  -0.004767  -0.000525
    21  H    0.010144   0.000017   0.012643  -0.000116  -0.000127   0.000337
    22  H   -0.000628   0.000067  -0.005736   0.000010   0.000392  -0.000137
    23  N   -0.033699  -0.004189  -0.085429   0.012042  -0.007980  -0.001787
             19         20         21         22         23
     1  C   -0.059962  -0.010478   0.005244   0.001010  -0.025648
     2  C    0.025981   0.000618  -0.003605   0.001462  -0.023758
     3  C   -0.078901   0.005149  -0.001982  -0.002517  -0.080192
     4  C   -0.081797  -0.000388  -0.016327   0.006242   0.277289
     5  C   -0.115956   0.018113  -0.033375   0.013543   0.220981
     6  H    0.000240   0.000009   0.000045  -0.000058   0.008496
     7  H   -0.000043   0.000002  -0.000043   0.000001  -0.003537
     8  H   -0.001210  -0.000003  -0.000003  -0.000002  -0.004626
     9  H    0.000673   0.000009   0.000027  -0.000014  -0.006053
    10  H   -0.000184  -0.000018   0.000045   0.000012   0.008287
    11  H    0.005061  -0.000790   0.009962  -0.001485  -0.034603
    12  H   -0.012501   0.000467  -0.001172   0.003989  -0.057694
    13  H    0.009138  -0.001743   0.010144  -0.000628  -0.033699
    14  H   -0.000951  -0.000007   0.000017   0.000067  -0.004189
    15  C   -0.049801  -0.005614   0.012643  -0.005736  -0.085429
    16  H    0.002925   0.000383  -0.000116   0.000010   0.012042
    17  H   -0.008037  -0.004767  -0.000127   0.000392  -0.007980
    18  H   -0.004035  -0.000525   0.000337  -0.000137  -0.001787
    19  C    4.970777   0.442656   0.437857   0.429685   0.274445
    20  H    0.442656   0.562082  -0.042117  -0.021280  -0.054619
    21  H    0.437857  -0.042117   0.574377  -0.036281  -0.021518
    22  H    0.429685  -0.021280  -0.036281   0.564881  -0.059854
    23  N    0.274445  -0.054619  -0.021518  -0.059854   6.847755
 Mulliken atomic charges:
              1
     1  C   -0.264989
     2  C   -0.287125
     3  C   -0.348362
     4  C    0.016956
     5  C    0.189833
     6  H    0.104724
     7  H    0.113150
     8  H    0.105100
     9  H    0.119180
    10  H    0.107011
    11  H    0.092479
    12  H    0.098813
    13  H    0.064659
    14  H    0.117038
    15  C   -0.607223
    16  H    0.119058
    17  H    0.119723
    18  H    0.144613
    19  C   -0.186059
    20  H    0.112862
    21  H    0.105970
    22  H    0.106698
    23  N   -0.144108
 Sum of Mulliken atomic charges =   0.00000
 Mulliken charges with hydrogens summed into heavy atoms:
              1
     1  C   -0.038798
     2  C   -0.068876
     3  C   -0.126600
     4  C    0.208248
     5  C    0.254492
    15  C   -0.223828
    19  C    0.139471
    23  N   -0.144108
 Sum of Mulliken charges with hydrogens summed into heavy atoms =   0.00000
 Electronic spatial extent (au):  <R**2>=           1049.4512
 Charge=              0.0000 electrons
 Dipole moment (field-independent basis, Debye):
    X=             -0.0738    Y=             -0.0123    Z=              0.6241  Tot=              0.6285
 Quadrupole moment (field-independent basis, Debye-Ang):
   XX=            -52.0449   YY=            -51.7330   ZZ=            -54.2807
   XY=             -0.0684   XZ=              0.4035   YZ=             -0.0492
 Traceless Quadrupole moment (field-independent basis, Debye-Ang):
   XX=              0.6413   YY=              0.9532   ZZ=             -1.5945
   XY=             -0.0684   XZ=              0.4035   YZ=             -0.0492
 Octapole moment (field-independent basis, Debye-Ang**2):
  XXX=              2.8392  YYY=             -4.0221  ZZZ=             -0.3941  XYY=              0.1249
  XXY=             -2.1987  XXZ=             -1.1136  XZZ=             -0.7574  YZZ=              0.8959
  YYZ=             -1.0445  XYZ=              0.5283
 Hexadecapole moment (field-independent basis, Debye-Ang**3):
 XXXX=           -775.7242 YYYY=           -548.3776 ZZZZ=           -125.7112 XXXY=             -4.4033
 XXXZ=             -1.1525 YYYX=             -2.1730 YYYZ=             10.3989 ZZZX=              0.1091
 ZZZY=             -1.5551 XXYY=           -225.5382 XXZZ=           -151.8498 YYZZ=           -115.9773
 XXYZ=             -0.9636 YYXZ=             -0.3367 ZZXY=              0.2370
 N-N= 4.203974630433D+02 E-N=-1.605522756835D+03  KE= 3.283285844006D+02
 1\1\GINC-UREY\SP\RHF\6-311+G(2d,p)\C7H15N1\DOLEARY\06-Oct-2015\0\\# nm
 r=giao rhf/6-311+g(2d,p)\\Title Card Required\\0,1\C,0,0.636596,-1.446
 407,-0.12346\C,0,1.929107,-0.727348,0.239711\C,0,1.899424,0.693938,-0.
 304193\C,0,0.629965,1.403603,0.136048\C,0,-0.609419,-0.66574,0.298464\
 H,0,2.763577,1.257153,0.036013\H,0,2.037797,-0.698854,1.32242\H,0,2.78
 6072,-1.271179,-0.14592\H,0,0.596051,-1.601637,-1.199003\H,0,0.609244,
 -2.426842,0.342355\H,0,0.654429,1.548071,1.223648\H,0,0.593004,2.39085
 2,-0.309556\H,0,-0.612102,-0.603016,1.395025\H,0,1.933234,0.673185,-1.
 389975\C,0,-1.859145,-1.431205,-0.128063\H,0,-1.779265,-2.464146,0.193
 106\H,0,-2.764698,-1.028964,0.307734\H,0,-1.96319,-1.418381,-1.208333\
 C,0,-1.744128,1.470366,0.0393\H,0,-2.626107,1.045932,-0.41765\H,0,-1.9
 25905,1.563376,1.11527\H,0,-1.620028,2.467864,-0.36353\N,0,-0.568074,0
 .683336,-0.264064\\Version=EM64L-G09RevC.01\State=1-A\HF=-328.3434058\
 RMSD=9.456e-09\Dipole=0.0290328,0.0048351,0.2455221\Quadrupole=0.47677
 26,0.7087039,-1.1854765,-0.0508229,-0.2999877,0.0365991\PG=C01 [X(C7H1
 5N1)]\\@


 Make no judgements where you have no compassion.
                               -- Anne McCaffrey
 Job cpu time:  0 days  1 hours 28 minutes 51.6 seconds.
 File lengths (MBytes):  RWF=     43 Int=      0 D2E=      0 Chk=      7 Scr=      1
 Normal termination of Gaussian 09 at Tue Oct  6 14:54:38 2015.
