 Entering Gaussian System, Link 0=/opt/g09/g09
 Initial command:
 /opt/g09/l1.exe /tmp/Gau-12352.inp -scrdir=/tmp/
 Entering Link 1 = /opt/g09/l1.exe PID=     12354.
  
 Copyright (c) 1988,1990,1992,1993,1995,1998,2003,2009,2011,
            Gaussian, Inc.  All Rights Reserved.
  
 This is part of the Gaussian(R) 09 program.  It is based on
 the Gaussian(R) 03 system (copyright 2003, Gaussian, Inc.),
 the Gaussian(R) 98 system (copyright 1998, Gaussian, Inc.),
 the Gaussian(R) 94 system (copyright 1995, Gaussian, Inc.),
 the Gaussian 92(TM) system (copyright 1992, Gaussian, Inc.),
 the Gaussian 90(TM) system (copyright 1990, Gaussian, Inc.),
 the Gaussian 88(TM) system (copyright 1988, Gaussian, Inc.),
 the Gaussian 86(TM) system (copyright 1986, Carnegie Mellon
 University), and the Gaussian 82(TM) system (copyright 1983,
 Carnegie Mellon University). Gaussian is a federally registered
 trademark of Gaussian, Inc.
  
 This software contains proprietary and confidential information,
 including trade secrets, belonging to Gaussian, Inc.
  
 This software is provided under written license and may be
 used, copied, transmitted, or stored only in accord with that
 written license.
  
 The following legend is applicable only to US Government
 contracts under FAR:
  
                    RESTRICTED RIGHTS LEGEND
  
 Use, reproduction and disclosure by the US Government is
 subject to restrictions as set forth in subparagraphs (a)
 and (c) of the Commercial Computer Software - Restricted
 Rights clause in FAR 52.227-19.
  
 Gaussian, Inc.
 340 Quinnipiac St., Bldg. 40, Wallingford CT 06492
  
  
 ---------------------------------------------------------------
 Warning -- This program may not be used in any manner that
 competes with the business of Gaussian, Inc. or will provide
 assistance to any competitor of Gaussian, Inc.  The licensee
 of this program is prohibited from giving any competitor of
 Gaussian, Inc. access to this program.  By using this program,
 the user acknowledges that Gaussian, Inc. is engaged in the
 business of creating and licensing software in the field of
 computational chemistry and represents and warrants to the
 licensee that it is not a competitor of Gaussian, Inc. and that
 it will not use this program in any manner prohibited above.
 ---------------------------------------------------------------
  

 Cite this work as:
 Gaussian 09, Revision C.01,
 M. J. Frisch, G. W. Trucks, H. B. Schlegel, G. E. Scuseria, 
 M. A. Robb, J. R. Cheeseman, G. Scalmani, V. Barone, B. Mennucci, 
 G. A. Petersson, H. Nakatsuji, M. Caricato, X. Li, H. P. Hratchian, 
 A. F. Izmaylov, J. Bloino, G. Zheng, J. L. Sonnenberg, M. Hada, 
 M. Ehara, K. Toyota, R. Fukuda, J. Hasegawa, M. Ishida, T. Nakajima, 
 Y. Honda, O. Kitao, H. Nakai, T. Vreven, J. A. Montgomery, Jr., 
 J. E. Peralta, F. Ogliaro, M. Bearpark, J. J. Heyd, E. Brothers, 
 K. N. Kudin, V. N. Staroverov, T. Keith, R. Kobayashi, J. Normand, 
 K. Raghavachari, A. Rendell, J. C. Burant, S. S. Iyengar, J. Tomasi, 
 M. Cossi, N. Rega, J. M. Millam, M. Klene, J. E. Knox, J. B. Cross, 
 V. Bakken, C. Adamo, J. Jaramillo, R. Gomperts, R. E. Stratmann, 
 O. Yazyev, A. J. Austin, R. Cammi, C. Pomelli, J. W. Ochterski, 
 R. L. Martin, K. Morokuma, V. G. Zakrzewski, G. A. Voth, 
 P. Salvador, J. J. Dannenberg, S. Dapprich, A. D. Daniels, 
 O. Farkas, J. B. Foresman, J. V. Ortiz, J. Cioslowski, 
 and D. J. Fox, Gaussian, Inc., Wallingford CT, 2010.
 
 ******************************************
 Gaussian 09:  EM64L-G09RevC.01 23-Sep-2011
                10-Oct-2015 
 ******************************************
 %nprocshared=23
 Will use up to   23 processors via shared memory.
 %mem=40GB
 %chk=tms_hf6311+g2dp_nmr.chk
 ---------------------------
 # nmr=giao hf/6-311+g(2d,p)
 ---------------------------
 1/38=1/1;
 2/12=2,17=6,18=5,40=1/2;
 3/5=4,6=6,7=112,11=9,16=1,25=1,30=1/1,2,8,3;
 4//1;
 5/5=2,38=5/2;
 8/6=1,10=90,11=11/1;
 10/13=100,45=16/2;
 6/7=2,8=2,9=2,10=2,28=1/1;
 99/9=1/99;
 -------------------
 Title Card Required
 -------------------
 Charge =  0 Multiplicity = 1
 Symbolic Z-Matrix:
 C                    -1.80531  -0.17518  -0.50937 
 H                    -2.46569   0.29062   0.21715 
 H                    -1.98956   0.29463  -1.47177 
 H                    -2.09068  -1.22045  -0.5923 
 C                     0.44252   1.82691   0.12598 
 H                    -0.17638   2.33134   0.86315 
 H                     1.48032   1.96066   0.41919 
 H                     0.3006    2.33224  -0.82554 
 C                     1.09902  -0.82493  -1.28878 
 H                     2.14909  -0.74007  -1.02224 
 H                     0.86713  -1.88228  -1.38431 
 H                     0.96873  -0.36879  -2.26646 
 C                     0.26378  -0.8268    1.67216 
 H                     0.01607  -1.88409   1.63133 
 H                     1.29841  -0.74236   1.99356 
 H                    -0.35804  -0.37145   2.43825 
 Si                    0.        0.        0. 
 
                          Input orientation:                          
 ---------------------------------------------------------------------
 Center     Atomic      Atomic             Coordinates (Angstroms)
 Number     Number       Type             X           Y           Z
 ---------------------------------------------------------------------
      1          6           0       -1.805314   -0.175183   -0.509365
      2          1           0       -2.465691    0.290617    0.217151
      3          1           0       -1.989557    0.294634   -1.471769
      4          1           0       -2.090677   -1.220449   -0.592300
      5          6           0        0.442519    1.826912    0.125982
      6          1           0       -0.176380    2.331340    0.863145
      7          1           0        1.480322    1.960657    0.419190
      8          1           0        0.300599    2.332240   -0.825540
      9          6           0        1.099018   -0.824930   -1.288779
     10          1           0        2.149089   -0.740065   -1.022239
     11          1           0        0.867131   -1.882282   -1.384311
     12          1           0        0.968733   -0.368788   -2.266456
     13          6           0        0.263777   -0.826799    1.672162
     14          1           0        0.016065   -1.884090    1.631325
     15          1           0        1.298411   -0.742364    1.993557
     16          1           0       -0.358043   -0.371449    2.438248
     17         14           0        0.000000    0.000000    0.000000
 ---------------------------------------------------------------------
                    Distance matrix (angstroms):
                    1          2          3          4          5
     1  C    0.000000
     2  H    1.086689   0.000000
     3  H    1.086690   1.754757   0.000000
     4  H    1.086688   1.754756   1.754756   0.000000
     5  C    3.076492   3.290319   3.288720   4.027334   0.000000
     6  H    3.289357   3.134135   3.589931   4.289296   1.086689
     7  H    4.027335   4.289624   4.288522   4.888208   1.086689
     8  H    3.289682   3.592741   3.132773   4.288846   1.086688
     9  C    3.076492   4.027334   3.290320   3.288719   3.076492
    10  H    4.027336   4.888209   4.289647   4.288500   3.289402
    11  H    3.289632   4.288808   3.592670   3.132720   4.027332
    12  H    3.289405   4.289334   3.134188   3.590002   3.289644
    13  C    3.076492   3.288719   4.027335   3.290319   3.076492
    14  H    3.289428   3.590035   4.289353   3.134213   4.027339
    15  H    4.027334   4.288488   4.888209   4.289655   3.289615
    16  H    3.289610   3.132696   4.288792   3.592637   3.289417
    17  Si   1.883959   2.492237   2.492238   2.492237   1.883959
                    6          7          8          9         10
     6  H    0.000000
     7  H    1.754755   0.000000
     8  H    1.754755   1.754757   0.000000
     9  C    4.027339   3.289688   3.289344   0.000000
    10  H    4.289057   3.133507   3.590914   1.086690   0.000000
    11  H    4.888209   4.289149   4.288983   1.086688   1.754757
    12  H    4.289100   3.591759   3.133400   1.086689   1.754754
    13  C    3.289694   3.289351   4.027331   3.076492   3.289638
    14  H    4.289171   4.288986   4.888209   3.289622   3.591655
    15  H    3.591726   3.133376   4.289071   3.289423   3.133478
    16  H    3.133531   3.590947   4.289062   4.027332   4.289121
    17  Si   2.492243   2.492238   2.492232   1.883959   2.492238
                   11         12         13         14         15
    11  H    0.000000
    12  H    1.754755   0.000000
    13  C    3.289393   4.027338   0.000000
    14  H    3.133429   4.289104   1.086689   0.000000
    15  H    3.591018   4.289051   1.086688   1.754754   0.000000
    16  H    4.289012   4.888208   1.086688   1.754755   1.754756
    17  Si   2.492232   2.492242   1.883959   2.492243   2.492237
                   16         17
    16  H    0.000000
    17  Si   2.492232   0.000000
 This structure is nearly, but not quite of a higher symmetry.
 Consider Symm=Loose if the higher symmetry is desired.
 This structure is nearly, but not quite of a higher symmetry.
 Consider Symm=Loose if the higher symmetry is desired.
 Stoichiometry    C4H12Si
 Framework group  C1[X(C4H12Si)]
 Deg. of freedom    45
 Full point group                 C1      NOp   1
 Largest Abelian subgroup         C1      NOp   1
 Largest concise Abelian subgroup C1      NOp   1
                         Standard orientation:                         
 ---------------------------------------------------------------------
 Center     Atomic      Atomic             Coordinates (Angstroms)
 Number     Number       Type             X           Y           Z
 ---------------------------------------------------------------------
      1          6           0       -1.674665    0.859095   -0.082170
      2          1           0       -1.818865    1.521238    0.767339
      3          1           0       -1.766177    1.456300   -0.985424
      4          1           0       -2.487161    0.137474   -0.079859
      5          6           0        1.370220    1.292944   -0.009716
      6          1           0        1.282896    1.964629    0.840052
      7          1           0        2.350768    0.826889    0.037331
      8          1           0        1.334647    1.896592   -0.912620
      9          6           0        0.197223   -1.135256   -1.490503
     10          1           0        1.156167   -1.646092   -1.471363
     11          1           0       -0.580520   -1.893891   -1.512413
     12          1           0        0.139466   -0.576369   -2.420665
     13          6           0        0.107222   -1.016783    1.582390
     14          1           0       -0.672456   -1.772940    1.617331
     15          1           0        1.064317   -1.525777    1.658457
     16          1           0       -0.003080   -0.388053    2.461834
     17         14           0        0.000000    0.000000    0.000000
 ---------------------------------------------------------------------
 Rotational constants (GHZ):      3.0880487      3.0880483      3.0880482
 Standard basis: 6-311+G(2d,p) (5D, 7F)
 There are   215 symmetry adapted basis functions of A   symmetry.
 Integral buffers will be    131072 words long.
 Raffenetti 1 integral format.
 Two-electron integral symmetry is turned on.
   215 basis functions,   320 primitive gaussians,   225 cartesian basis functions
    25 alpha electrons       25 beta electrons
       nuclear repulsion energy       245.9134945105 Hartrees.
 NAtoms=   17 NActive=   17 NUniq=   17 SFac= 1.00D+00 NAtFMM=   60 NAOKFM=F Big=F
 One-electron integrals computed using PRISM.
 NBasis=   215 RedAO= T  NBF=   215
 NBsUse=   215 1.00D-06 NBFU=   215
 Harris functional with IExCor=  205 diagonalized for initial guess.
 ExpMin= 3.31D-02 ExpMax= 6.94D+04 ExpMxC= 2.33D+03 IAcc=3 IRadAn=         5 AccDes= 0.00D+00
 HarFok:  IExCor=  205 AccDes= 0.00D+00 IRadAn=         5 IDoV= 1
 ScaDFX=  1.000000  1.000000  1.000000  1.000000
 FoFCou: FMM=F IPFlag=           0 FMFlag=      100000 FMFlg1=           0
         NFxFlg=           0 DoJE=T BraDBF=F KetDBF=T FulRan=T
         Omega=  0.000000  0.000000  1.000000  0.000000  0.000000 ICntrl=     500 IOpCl=  0
         NMat0=    1 NMatS0=    1 NMatT0=    0 NMatD0=    1 NMtDS0=    0 NMtDT0=    0
         I1Cent=           4 NGrid=           0.
 Petite list used in FoFCou.
 Initial guess orbital symmetries:
       Occupied  (A) (A) (A) (A) (A) (A) (A) (A) (A) (A) (A) (A)
                 (A) (A) (A) (A) (A) (A) (A) (A) (A) (A) (A) (A)
                 (A)
       Virtual   (A) (A) (A) (A) (A) (A) (A) (A) (A) (A) (A) (A)
                 (A) (A) (A) (A) (A) (A) (A) (A) (A) (A) (A) (A)
                 (A) (A) (A) (A) (A) (A) (A) (A) (A) (A) (A) (A)
                 (A) (A) (A) (A) (A) (A) (A) (A) (A) (A) (A) (A)
                 (A) (A) (A) (A) (A) (A) (A) (A) (A) (A) (A) (A)
                 (A) (A) (A) (A) (A) (A) (A) (A) (A) (A) (A) (A)
                 (A) (A) (A) (A) (A) (A) (A) (A) (A) (A) (A) (A)
                 (A) (A) (A) (A) (A) (A) (A) (A) (A) (A) (A) (A)
                 (A) (A) (A) (A) (A) (A) (A) (A) (A) (A) (A) (A)
                 (A) (A) (A) (A) (A) (A) (A) (A) (A) (A) (A) (A)
                 (A) (A) (A) (A) (A) (A) (A) (A) (A) (A) (A) (A)
                 (A) (A) (A) (A) (A) (A) (A) (A) (A) (A) (A) (A)
                 (A) (A) (A) (A) (A) (A) (A) (A) (A) (A) (A) (A)
                 (A) (A) (A) (A) (A) (A) (A) (A) (A) (A) (A) (A)
                 (A) (A) (A) (A) (A) (A) (A) (A) (A) (A) (A) (A)
                 (A) (A) (A) (A) (A) (A) (A) (A) (A) (A)
 The electronic state of the initial guess is 1-A.
 Requested convergence on RMS density matrix=1.00D-08 within 128 cycles.
 Requested convergence on MAX density matrix=1.00D-06.
 Requested convergence on             energy=1.00D-06.
 No special actions if energy rises.
 Keep R1 ints in memory in canonical form, NReq=329176399.
 DSYEVD returned Info=       35207 IAlg= 4 N=   215 NDim=   215 NE2=    23466606 trying DSYEV.
 DSYEVD returned Info=       35207 IAlg= 4 N=   215 NDim=   215 NE2=    23466606 trying DSYEV.
 SCF Done:  E(RHF) =  -447.491009791     A.U. after   10 cycles
             Convg  =    0.5932D-08             -V/T =  2.0001
 Range of M.O.s used for correlation:     1   215
 NBasis=   215 NAE=    25 NBE=    25 NFC=     0 NFV=     0
 NROrb=    215 NOA=    25 NOB=    25 NVA=   190 NVB=   190

 **** Warning!!: The largest alpha MO coefficient is  0.31047406D+02

          Differentiating once with respect to magnetic field using GIAOs.
          Electric field/nuclear overlap derivatives assumed to be zero.
          Keep R3 ints in memory in canonical form, NReq=324049375.
 FoFCou: FMM=F IPFlag=           0 FMFlag=           0 FMFlg1=           0
         NFxFlg=           0 DoJE=F BraDBF=F KetDBF=T FulRan=T
         Omega=  0.000000  0.000000  1.000000  0.000000  0.000000 ICntrl=    6100 IOpCl=  0
         NMat0=    1 NMatS0=    1 NMatT0=    0 NMatD0=    1 NMtDS0=    0 NMtDT0=    0
         I1Cent=           7 NGrid=          17.
 Symmetry not used in FoFCou.
          There are     3 degrees of freedom in the 1st order CPHF.  IDoFFX=0.
      3 vectors produced by pass  0 Test12= 1.58D-13 3.33D-08 XBig12= 1.45D+00 2.16D-01.
 AX will form     3 AO Fock derivatives at one time.
      3 vectors produced by pass  1 Test12= 1.58D-13 3.33D-08 XBig12= 1.78D-02 3.13D-02.
      3 vectors produced by pass  2 Test12= 1.58D-13 3.33D-08 XBig12= 1.73D-04 4.36D-03.
      3 vectors produced by pass  3 Test12= 1.58D-13 3.33D-08 XBig12= 1.21D-06 2.46D-04.
      3 vectors produced by pass  4 Test12= 1.58D-13 3.33D-08 XBig12= 1.37D-08 2.10D-05.
      3 vectors produced by pass  5 Test12= 1.58D-13 3.33D-08 XBig12= 1.79D-10 3.35D-06.
      3 vectors produced by pass  6 Test12= 1.58D-13 3.33D-08 XBig12= 2.30D-12 2.71D-07.
      3 vectors produced by pass  7 Test12= 1.58D-13 3.33D-08 XBig12= 3.05D-14 4.37D-08.
 Inverted reduced A of dimension    24 with in-core refinement.
 Calculating GIAO nuclear magnetic shielding tensors.
 SCF GIAO Magnetic shielding tensor (ppm):
      1  C    Isotropic =   194.5996   Anisotropy =     5.0221
   XX=   196.8937   YX=    -2.0361   ZX=     0.1926
   XY=    -2.0356   YY=   193.9698   ZY=    -0.1034
   XZ=     0.1970   YZ=    -0.0951   ZZ=   192.9354
   Eigenvalues:   192.9250   192.9263   197.9477
      2  H    Isotropic =    32.4261   Anisotropy =    10.0316
   XX=    30.6630   YX=    -2.6267   ZX=    -2.0101
   XY=    -2.4563   YY=    32.9646   ZY=     4.7113
   XZ=    -1.7617   YZ=     4.5759   ZZ=    33.6508
   Eigenvalues:    28.3868    29.7777    39.1139
      3  H    Isotropic =    32.4261   Anisotropy =    10.0316
   XX=    30.4405   YX=    -2.1992   ZX=     1.9755
   XY=    -2.0397   YY=    32.2729   ZY=    -4.7384
   XZ=     1.7153   YZ=    -4.6124   ZZ=    34.5650
   Eigenvalues:    28.3868    29.7777    39.1138
      4  H    Isotropic =    32.4261   Anisotropy =    10.0316
   XX=    37.1011   YX=     4.0040   ZX=     0.1130
   XY=     3.6742   YY=    31.7867   ZY=    -0.0136
   XZ=     0.1253   YZ=    -0.0033   ZZ=    28.3906
   Eigenvalues:    28.3868    29.7777    39.1139
      5  C    Isotropic =   194.5996   Anisotropy =     5.0221
   XX=   195.5822   YX=     2.5069   ZX=    -0.0194
   XY=     2.5070   YY=   195.2905   ZY=    -0.0219
   XZ=    -0.0117   YZ=    -0.0274   ZZ=   192.9262
   Eigenvalues:   192.9184   192.9328   197.9477
      6  H    Isotropic =    32.4260   Anisotropy =    10.0312
   XX=    29.4415   YX=     1.3725   ZX=     0.4180
   XY=     1.1942   YY=    34.0958   ZY=     5.1519
   XZ=     0.2170   YZ=     4.9606   ZZ=    33.7406
   Eigenvalues:    28.3868    29.7777    39.1135
      7  H    Isotropic =    32.4261   Anisotropy =    10.0316
   XX=    38.7332   YX=    -1.9761   ZX=     0.3822
   XY=    -1.6463   YY=    30.1425   ZY=    -0.1172
   XZ=     0.3702   YZ=    -0.1274   ZZ=    28.4027
   Eigenvalues:    28.3868    29.7777    39.1139
      8  H    Isotropic =    32.4263   Anisotropy =    10.0319
   XX=    29.5003   YX=     1.6156   ZX=    -0.8079
   XY=     1.4642   YY=    33.3192   ZY=    -5.0423
   XZ=    -0.5935   YZ=    -4.8414   ZZ=    34.4593
   Eigenvalues:    28.3869    29.7777    39.1142
      9  C    Isotropic =   194.5996   Anisotropy =     5.0221
   XX=   192.9852   YX=    -0.3160   ZX=    -0.4151
   XY=    -0.3080   YY=   194.7486   ZY=     2.3971
   XZ=    -0.4201   YZ=     2.3976   ZZ=   196.0651
   Eigenvalues:   192.9186   192.9326   197.9477
     10  H    Isotropic =    32.4261   Anisotropy =    10.0316
   XX=    35.5306   YX=    -4.5910   ZX=    -0.9972
   XY=    -4.7612   YY=    32.0078   ZY=     1.4782
   XZ=    -1.2455   YZ=     1.6138   ZZ=    29.7400
   Eigenvalues:    28.3868    29.7777    39.1138
     11  H    Isotropic =    32.4263   Anisotropy =    10.0320
   XX=    32.6759   YX=     4.7074   ZX=     0.7110
   XY=     4.8865   YY=    34.7695   ZY=     1.9593
   XZ=     0.9125   YZ=     2.1505   ZZ=    29.8335
   Eigenvalues:    28.3869    29.7777    39.1143
     12  H    Isotropic =    32.4260   Anisotropy =    10.0313
   XX=    28.4189   YX=    -0.2443   ZX=     0.1183
   XY=    -0.2520   YY=    30.5613   ZY=    -2.4707
   XZ=     0.1645   YZ=    -2.7972   ZZ=    38.2979
   Eigenvalues:    28.3868    29.7777    39.1135
     13  C    Isotropic =   194.5997   Anisotropy =     5.0221
   XX=   192.9375   YX=    -0.1550   ZX=     0.2406
   XY=    -0.1633   YY=   194.3896   ZY=    -2.2741
   XZ=     0.2362   YZ=    -2.2730   ZZ=   196.4719
   Eigenvalues:   192.9188   192.9325   197.9478
     14  H    Isotropic =    32.4260   Anisotropy =    10.0313
   XX=    32.7858   YX=     4.7733   ZX=    -0.9150
   XY=     4.9240   YY=    34.4423   ZY=    -2.0329
   XZ=    -1.1289   YZ=    -2.2338   ZZ=    30.0499
   Eigenvalues:    28.3868    29.7777    39.1135
     15  H    Isotropic =    32.4262   Anisotropy =    10.0316
   XX=    35.3561   YX=    -4.3832   ZX=     1.6635
   XY=    -4.5428   YY=    31.7403   ZY=    -1.8986
   XZ=     1.9238   YZ=    -2.0243   ZZ=    30.1821
   Eigenvalues:    28.3868    29.7777    39.1139
     16  H    Isotropic =    32.4263   Anisotropy =    10.0319
   XX=    28.4667   YX=    -0.4524   ZX=    -0.6516
   XY=    -0.4447   YY=    31.0109   ZY=     3.0125
   XZ=    -0.6986   YZ=     3.3396   ZZ=    37.8012
   Eigenvalues:    28.3869    29.7777    39.1142
     17  Si   Isotropic =   385.7557   Anisotropy =     0.0001
   XX=   385.7557   YX=     0.0006   ZX=     0.0040
   XY=    -0.0005   YY=   385.7558   ZY=     0.0065
   XZ=    -0.0041   YZ=    -0.0064   ZZ=   385.7557
   Eigenvalues:   385.7557   385.7557   385.7558
 End of Minotr Frequency-dependent properties file   721 does not exist.
 End of Minotr Frequency-dependent properties file   722 does not exist.

 **********************************************************************

            Population analysis using the SCF density.

 **********************************************************************

 Orbital symmetries:
       Occupied  (A) (A) (A) (A) (A) (A) (A) (A) (A) (A) (A) (A)
                 (A) (A) (A) (A) (A) (A) (A) (A) (A) (A) (A) (A)
                 (A)
       Virtual   (A) (A) (A) (A) (A) (A) (A) (A) (A) (A) (A) (A)
                 (A) (A) (A) (A) (A) (A) (A) (A) (A) (A) (A) (A)
                 (A) (A) (A) (A) (A) (A) (A) (A) (A) (A) (A) (A)
                 (A) (A) (A) (A) (A) (A) (A) (A) (A) (A) (A) (A)
                 (A) (A) (A) (A) (A) (A) (A) (A) (A) (A) (A) (A)
                 (A) (A) (A) (A) (A) (A) (A) (A) (A) (A) (A) (A)
                 (A) (A) (A) (A) (A) (A) (A) (A) (A) (A) (A) (A)
                 (A) (A) (A) (A) (A) (A) (A) (A) (A) (A) (A) (A)
                 (A) (A) (A) (A) (A) (A) (A) (A) (A) (A) (A) (A)
                 (A) (A) (A) (A) (A) (A) (A) (A) (A) (A) (A) (A)
                 (A) (A) (A) (A) (A) (A) (A) (A) (A) (A) (A) (A)
                 (A) (A) (A) (A) (A) (A) (A) (A) (A) (A) (A) (A)
                 (A) (A) (A) (A) (A) (A) (A) (A) (A) (A) (A) (A)
                 (A) (A) (A) (A) (A) (A) (A) (A) (A) (A) (A) (A)
                 (A) (A) (A) (A) (A) (A) (A) (A) (A) (A) (A) (A)
                 (A) (A) (A) (A) (A) (A) (A) (A) (A) (A)
 The electronic state is 1-A.
 Alpha  occ. eigenvalues --  -68.74707 -11.19044 -11.19044 -11.19044 -11.19043
 Alpha  occ. eigenvalues --   -6.09291  -4.20001  -4.20001  -4.20001  -0.97350
 Alpha  occ. eigenvalues --   -0.92105  -0.92105  -0.92105  -0.62253  -0.56646
 Alpha  occ. eigenvalues --   -0.56646  -0.56646  -0.54841  -0.54841  -0.52777
 Alpha  occ. eigenvalues --   -0.52777  -0.52777  -0.42294  -0.42294  -0.42294
 Alpha virt. eigenvalues --    0.05081   0.07345   0.07345   0.07345   0.11624
 Alpha virt. eigenvalues --    0.11624   0.11624   0.12922   0.12922   0.14832
 Alpha virt. eigenvalues --    0.15620   0.15620   0.15620   0.18259   0.18259
 Alpha virt. eigenvalues --    0.18259   0.18876   0.18876   0.18876   0.21870
 Alpha virt. eigenvalues --    0.27173   0.27173   0.27514   0.27514   0.27514
 Alpha virt. eigenvalues --    0.30128   0.30128   0.30128   0.35020   0.35020
 Alpha virt. eigenvalues --    0.35020   0.37071   0.39152   0.39152   0.39152
 Alpha virt. eigenvalues --    0.47119   0.47119   0.47722   0.47722   0.47722
 Alpha virt. eigenvalues --    0.49075   0.61798   0.61798   0.61798   0.64183
 Alpha virt. eigenvalues --    0.64183   0.64183   0.64270   0.64796   0.64796
 Alpha virt. eigenvalues --    0.65898   0.65898   0.65898   0.77216   0.81058
 Alpha virt. eigenvalues --    0.81058   0.81058   0.83212   0.83212   0.85114
 Alpha virt. eigenvalues --    0.85114   0.85114   0.93028   0.93308   0.93308
 Alpha virt. eigenvalues --    0.93308   0.95595   0.95595   0.95595   0.95826
 Alpha virt. eigenvalues --    0.95826   0.95826   1.03626   1.04960   1.04960
 Alpha virt. eigenvalues --    1.04960   1.12429   1.12429   1.21346   1.21346
 Alpha virt. eigenvalues --    1.21346   1.31356   1.31356   1.31356   1.33937
 Alpha virt. eigenvalues --    1.33937   1.33937   1.47807   1.47807   1.51666
 Alpha virt. eigenvalues --    1.51666   1.51666   1.60543   1.73856   1.74338
 Alpha virt. eigenvalues --    1.74338   1.74338   1.76885   1.76885   1.76885
 Alpha virt. eigenvalues --    1.95239   1.95239   1.95632   1.95632   1.95632
 Alpha virt. eigenvalues --    2.02876   2.02876   2.02876   2.23962   2.23962
 Alpha virt. eigenvalues --    2.23962   2.24268   2.27060   2.27060   2.27060
 Alpha virt. eigenvalues --    2.37805   2.37805   2.41426   2.41426   2.41426
 Alpha virt. eigenvalues --    2.47905   2.47905   2.57100   2.57100   2.57100
 Alpha virt. eigenvalues --    2.58921   2.58922   2.58922   2.70566   2.70566
 Alpha virt. eigenvalues --    2.70566   2.71474   2.77123   2.77123   2.79173
 Alpha virt. eigenvalues --    2.79173   2.79173   2.94955   2.94955   3.03970
 Alpha virt. eigenvalues --    3.03970   3.03970   3.09887   3.09887   3.09887
 Alpha virt. eigenvalues --    3.11009   3.27180   3.27180   3.27180   3.47714
 Alpha virt. eigenvalues --    3.47714   3.49854   3.57016   3.57016   3.57016
 Alpha virt. eigenvalues --    3.60605   3.60605   3.60605   3.77607   3.77607
 Alpha virt. eigenvalues --    3.78823   3.78823   3.78823   3.89052   3.89052
 Alpha virt. eigenvalues --    3.89052   3.90560   3.90560   3.90561   4.06857
 Alpha virt. eigenvalues --    4.14763   4.14763   4.14763   4.58514   4.58514
 Alpha virt. eigenvalues --    4.58514   4.63755   4.63755   4.64747   4.64747
 Alpha virt. eigenvalues --    4.64747   6.40093  12.46578  12.46578  12.46578
 Alpha virt. eigenvalues --   25.16073  25.16073  25.16073  25.23924 144.21107
          Condensed to atoms (all electrons):
              1          2          3          4          5          6
     1  C    5.282797   0.408088   0.408088   0.408088  -0.058221  -0.004641
     2  H    0.408088   0.531732  -0.025465  -0.025464  -0.004688   0.000645
     3  H    0.408088  -0.025465   0.531732  -0.025465  -0.004631   0.000226
     4  H    0.408088  -0.025464  -0.025465   0.531732   0.006847  -0.000099
     5  C   -0.058221  -0.004688  -0.004631   0.006847   5.282796   0.408088
     6  H   -0.004641   0.000645   0.000226  -0.000099   0.408088   0.531732
     7  H    0.006847  -0.000099  -0.000099  -0.000042   0.408088  -0.025465
     8  H   -0.004678   0.000226   0.000647  -0.000099   0.408088  -0.025464
     9  C   -0.058220   0.006847  -0.004688  -0.004631  -0.058221   0.006851
    10  H    0.006848  -0.000042  -0.000099  -0.000099  -0.004637  -0.000099
    11  H   -0.004677  -0.000099   0.000226   0.000647   0.006844  -0.000042
    12  H   -0.004642  -0.000099   0.000645   0.000226  -0.004676  -0.000099
    13  C   -0.058220  -0.004631   0.006848  -0.004688  -0.058221  -0.004677
    14  H   -0.004642   0.000226  -0.000099   0.000645   0.006851  -0.000099
    15  H    0.006847  -0.000099  -0.000042  -0.000099  -0.004682   0.000226
    16  H   -0.004677   0.000647  -0.000099   0.000226  -0.004643   0.000646
    17  Si   0.362420  -0.010930  -0.010931  -0.010931   0.362421  -0.010934
              7          8          9         10         11         12
     1  C    0.006847  -0.004678  -0.058220   0.006848  -0.004677  -0.004642
     2  H   -0.000099   0.000226   0.006847  -0.000042  -0.000099  -0.000099
     3  H   -0.000099   0.000647  -0.004688  -0.000099   0.000226   0.000645
     4  H   -0.000042  -0.000099  -0.004631  -0.000099   0.000647   0.000226
     5  C    0.408088   0.408088  -0.058221  -0.004637   0.006844  -0.004676
     6  H   -0.025465  -0.025464   0.006851  -0.000099  -0.000042  -0.000099
     7  H    0.531732  -0.025464  -0.004683   0.000646  -0.000099   0.000226
     8  H   -0.025464   0.531732  -0.004642   0.000225  -0.000099   0.000646
     9  C   -0.004683  -0.004642   5.282796   0.408088   0.408088   0.408088
    10  H    0.000646   0.000225   0.408088   0.531732  -0.025464  -0.025465
    11  H   -0.000099  -0.000099   0.408088  -0.025464   0.531732  -0.025464
    12  H    0.000226   0.000646   0.408088  -0.025465  -0.025464   0.531732
    13  C   -0.004636   0.006844  -0.058221  -0.004682  -0.004643   0.006850
    14  H   -0.000099  -0.000042  -0.004676   0.000226   0.000646  -0.000099
    15  H    0.000646  -0.000099  -0.004637   0.000646   0.000225  -0.000099
    16  H    0.000225  -0.000099   0.006844  -0.000099  -0.000099  -0.000042
    17  Si  -0.010931  -0.010928   0.362421  -0.010931  -0.010927  -0.010934
             13         14         15         16         17
     1  C   -0.058220  -0.004642   0.006847  -0.004677   0.362420
     2  H   -0.004631   0.000226  -0.000099   0.000647  -0.010930
     3  H    0.006848  -0.000099  -0.000042  -0.000099  -0.010931
     4  H   -0.004688   0.000645  -0.000099   0.000226  -0.010931
     5  C   -0.058221   0.006851  -0.004682  -0.004643   0.362421
     6  H   -0.004677  -0.000099   0.000226   0.000646  -0.010934
     7  H   -0.004636  -0.000099   0.000646   0.000225  -0.010931
     8  H    0.006844  -0.000042  -0.000099  -0.000099  -0.010928
     9  C   -0.058221  -0.004676  -0.004637   0.006844   0.362421
    10  H   -0.004682   0.000226   0.000646  -0.000099  -0.010931
    11  H   -0.004643   0.000646   0.000225  -0.000099  -0.010927
    12  H    0.006850  -0.000099  -0.000099  -0.000042  -0.010934
    13  C    5.282796   0.408088   0.408088   0.408089   0.362420
    14  H    0.408088   0.531732  -0.025465  -0.025465  -0.010934
    15  H    0.408088  -0.025465   0.531732  -0.025464  -0.010931
    16  H    0.408089  -0.025465  -0.025464   0.531732  -0.010928
    17  Si   0.362420  -0.010934  -0.010931  -0.010928  11.410318
 Mulliken atomic charges:
              1
     1  C   -0.687406
     2  H    0.123204
     3  H    0.123204
     4  H    0.123204
     5  C   -0.687405
     6  H    0.123204
     7  H    0.123204
     8  H    0.123204
     9  C   -0.687405
    10  H    0.123204
    11  H    0.123204
    12  H    0.123204
    13  C   -0.687405
    14  H    0.123204
    15  H    0.123204
    16  H    0.123204
    17  Si   1.271169
 Sum of Mulliken atomic charges =   0.00000
 Mulliken charges with hydrogens summed into heavy atoms:
              1
     1  C   -0.317793
     5  C   -0.317792
     9  C   -0.317792
    13  C   -0.317792
    17  Si   1.271169
 Sum of Mulliken charges with hydrogens summed into heavy atoms =   0.00000
 Electronic spatial extent (au):  <R**2>=            666.2223
 Charge=              0.0000 electrons
 Dipole moment (field-independent basis, Debye):
    X=              0.0000    Y=              0.0000    Z=              0.0000  Tot=              0.0000
 Quadrupole moment (field-independent basis, Debye-Ang):
   XX=            -42.9776   YY=            -42.9776   ZZ=            -42.9776
   XY=              0.0000   XZ=              0.0000   YZ=              0.0000
 Traceless Quadrupole moment (field-independent basis, Debye-Ang):
   XX=              0.0000   YY=              0.0000   ZZ=              0.0000
   XY=              0.0000   XZ=              0.0000   YZ=              0.0000
 Octapole moment (field-independent basis, Debye-Ang**2):
  XXX=              2.5113  YYY=             -0.3340  ZZZ=             -0.7701  XYY=             -1.6856
  XXY=             -5.6762  XXZ=              0.3421  XZZ=             -0.8257  YZZ=              6.0102
  YYZ=              0.4280  XYZ=             -0.3124
 Hexadecapole moment (field-independent basis, Debye-Ang**3):
 XXXX=           -327.0552 YYYY=           -325.8731 ZZZZ=           -327.0144 XXXY=              0.1594
 XXXZ=             -0.0740 YYYX=             -0.3323 YYYZ=             -0.1049 ZZZX=              0.0445
 ZZZY=              0.0624 XXYY=           -109.3455 XXZZ=           -108.2041 YYZZ=           -109.3863
 XXYZ=              0.0425 YYXZ=              0.0295 ZZXY=              0.1729
 N-N= 2.459134945105D+02 E-N=-1.549825164730D+03  KE= 4.474347184291D+02
 1\1\GINC-PAULING\SP\RHF\6-311+G(2d,p)\C4H12Si1\DOLEARY\10-Oct-2015\0\\
 # nmr=giao hf/6-311+g(2d,p)\\Title Card Required\\0,1\C,0,-1.805314,-0
 .175183,-0.509365\H,0,-2.465691,0.290617,0.217151\H,0,-1.989557,0.2946
 34,-1.471769\H,0,-2.090677,-1.220449,-0.5923\C,0,0.442519,1.826912,0.1
 25982\H,0,-0.17638,2.33134,0.863145\H,0,1.480322,1.960657,0.41919\H,0,
 0.300599,2.33224,-0.82554\C,0,1.099018,-0.82493,-1.288779\H,0,2.149089
 ,-0.740065,-1.022239\H,0,0.867131,-1.882282,-1.384311\H,0,0.968733,-0.
 368788,-2.266456\C,0,0.263777,-0.826799,1.672162\H,0,0.016065,-1.88409
 ,1.631325\H,0,1.298411,-0.742364,1.993557\H,0,-0.358043,-0.371449,2.43
 8248\Si,0,0.,0.,0.\\Version=EM64L-G09RevC.01\State=1-A\HF=-447.4910098
 \RMSD=5.932e-09\Dipole=-0.0000004,-0.0000005,0.0000002\Quadrupole=-0.0
 000029,-0.0000006,0.0000034,0.000001,-0.0000003,-0.0000007\PG=C01 [X(C
 4H12Si1)]\\@


 IF AT FIRST YOU DON'T SUCCEED, TRY LOOKING IN 
 THE WASTEBASKET FOR THE DIRECTIONS.
 Job cpu time:  0 days  0 hours 22 minutes 59.4 seconds.
 File lengths (MBytes):  RWF=     24 Int=      0 D2E=      0 Chk=      4 Scr=      1
 Normal termination of Gaussian 09 at Sat Oct 10 16:19:35 2015.
