formamide gs structure                                                  
Freq      RHF                                                         6-31G(d)            
Number of atoms                            I                6
Info1-9                                    I   N=           9
          15          15        1002           0           0         100
           6           1           2
Charge                                     I                0
Multiplicity                               I                1
Number of electrons                        I               24
Number of alpha electrons                  I               12
Number of beta electrons                   I               12
Number of basis functions                  I               51
Number of independent functions            I               51
Number of point charges in /Mol/           I                0
Number of translation vectors              I                0
Atomic numbers                             I   N=           6
           1           6           8           7           1           1
Nuclear charges                            R   N=           6
  1.00000000E+00  6.00000000E+00  8.00000000E+00  7.00000000E+00  1.00000000E+00
  1.00000000E+00
Current cartesian coordinates              R   N=          18
  2.87852034E-01  2.78212131E+00  9.65335100E-05  3.11141330E-01  7.21031037E-01
  3.93692944E-06  2.22917007E+00 -4.63263820E-01  1.74012281E-04 -2.02819963E+00
 -2.89152657E-01 -1.06375834E-03 -2.22222320E+00 -2.16037084E+00  2.18657061E-03
 -3.56843997E+00  7.82242459E-01  3.74748440E-03
Force Field                                I                0
Int Atom Types                             I   N=           6
           0           0           0           0           0           0
MM charges                                 R   N=           6
  0.00000000E+00  0.00000000E+00  0.00000000E+00  0.00000000E+00  0.00000000E+00
  0.00000000E+00
Integer atomic weights                     I   N=           6
           1          12          16          14           1           1
Real atomic weights                        R   N=           6
  1.00782504E+00  1.20000000E+01  1.59949146E+01  1.40030740E+01  1.00782504E+00
  1.00782504E+00
Atom fragment info                         I   N=           6
           0           0           0           0           0           0
Atom residue num                           I   N=           6
           0           0           0           0           0           0
Nuclear spins                              I   N=           6
           1           0           0           2           1           1
Nuclear ZEff                               R   N=           6
 -1.00000000E+00 -3.60000000E+00 -5.60000000E+00 -4.55000000E+00 -1.00000000E+00
 -1.00000000E+00
Nuclear QMom                               R   N=           6
  0.00000000E+00  0.00000000E+00  0.00000000E+00  2.04400000E+00  0.00000000E+00
  0.00000000E+00
Nuclear GFac                               R   N=           6
  2.79284600E+00  0.00000000E+00  0.00000000E+00  4.03761000E-01  2.79284600E+00
  2.79284600E+00
MicOpt                                     I   N=           6
          -1          -1          -1          -1          -1          -1
Number of contracted shells                I               18
Number of primitive shells                 I               45
Pure/Cartesian d shells                    I                1
Pure/Cartesian f shells                    I                0
Highest angular momentum                   I                2
Largest degree of contraction              I                6
Shell types                                I   N=          18
           0           0           0          -1          -1           2
           0          -1          -1           2           0          -1
          -1           2           0           0           0           0
Number of primitives per shell             I   N=          18
           3           1           6           3           1           1
           6           3           1           1           6           3
           1           1           3           1           3           1
Shell to atom map                          I   N=          18
           1           1           2           2           2           2
           3           3           3           3           4           4
           4           4           5           5           6           6
Primitive exponents                        R   N=          45
  1.87311370E+01  2.82539436E+00  6.40121692E-01  1.61277759E-01  3.04752488E+03
  4.57369518E+02  1.03948685E+02  2.92101553E+01  9.28666296E+00  3.16392696E+00
  7.86827235E+00  1.88128854E+00  5.44249258E-01  1.68714478E-01  8.00000000E-01
  5.48467166E+03  8.25234946E+02  1.88046958E+02  5.29645000E+01  1.68975704E+01
  5.79963534E+00  1.55396162E+01  3.59993359E+00  1.01376175E+00  2.70005823E-01
  8.00000000E-01  4.17351146E+03  6.27457911E+02  1.42902093E+02  4.02343293E+01
  1.28202129E+01  4.39043701E+00  1.16263619E+01  2.71627981E+00  7.72218397E-01
  2.12031498E-01  8.00000000E-01  1.87311370E+01  2.82539436E+00  6.40121692E-01
  1.61277759E-01  1.87311370E+01  2.82539436E+00  6.40121692E-01  1.61277759E-01
Contraction coefficients                   R   N=          45
  3.34946043E-02  2.34726953E-01  8.13757326E-01  1.00000000E+00  1.83473713E-03
  1.40373228E-02  6.88426223E-02  2.32184443E-01  4.67941348E-01  3.62311985E-01
 -1.19332420E-01 -1.60854152E-01  1.14345644E+00  1.00000000E+00  1.00000000E+00
  1.83107443E-03  1.39501722E-02  6.84450781E-02  2.32714336E-01  4.70192898E-01
  3.58520853E-01 -1.10777550E-01 -1.48026263E-01  1.13076702E+00  1.00000000E+00
  1.00000000E+00  1.83477216E-03  1.39946270E-02  6.85865518E-02  2.32240873E-01
  4.69069948E-01  3.60455199E-01 -1.14961182E-01 -1.69117479E-01  1.14585195E+00
  1.00000000E+00  1.00000000E+00  3.34946043E-02  2.34726953E-01  8.13757326E-01
  1.00000000E+00  3.34946043E-02  2.34726953E-01  8.13757326E-01  1.00000000E+00
P(S=P) Contraction coefficients            R   N=          45
  0.00000000E+00  0.00000000E+00  0.00000000E+00  0.00000000E+00  0.00000000E+00
  0.00000000E+00  0.00000000E+00  0.00000000E+00  0.00000000E+00  0.00000000E+00
  6.89990666E-02  3.16423961E-01  7.44308291E-01  1.00000000E+00  0.00000000E+00
  0.00000000E+00  0.00000000E+00  0.00000000E+00  0.00000000E+00  0.00000000E+00
  0.00000000E+00  7.08742682E-02  3.39752839E-01  7.27158577E-01  1.00000000E+00
  0.00000000E+00  0.00000000E+00  0.00000000E+00  0.00000000E+00  0.00000000E+00
  0.00000000E+00  0.00000000E+00  6.75797439E-02  3.23907296E-01  7.40895140E-01
  1.00000000E+00  0.00000000E+00  0.00000000E+00  0.00000000E+00  0.00000000E+00
  0.00000000E+00  0.00000000E+00  0.00000000E+00  0.00000000E+00  0.00000000E+00
Coordinates of each shell                  R   N=          54
  2.87852034E-01  2.78212131E+00  9.65335100E-05  2.87852034E-01  2.78212131E+00
  9.65335100E-05  3.11141330E-01  7.21031037E-01  3.93692944E-06  3.11141330E-01
  7.21031037E-01  3.93692944E-06  3.11141330E-01  7.21031037E-01  3.93692944E-06
  3.11141330E-01  7.21031037E-01  3.93692944E-06  2.22917007E+00 -4.63263820E-01
  1.74012281E-04  2.22917007E+00 -4.63263820E-01  1.74012281E-04  2.22917007E+00
 -4.63263820E-01  1.74012281E-04  2.22917007E+00 -4.63263820E-01  1.74012281E-04
 -2.02819963E+00 -2.89152657E-01 -1.06375834E-03 -2.02819963E+00 -2.89152657E-01
 -1.06375834E-03 -2.02819963E+00 -2.89152657E-01 -1.06375834E-03 -2.02819963E+00
 -2.89152657E-01 -1.06375834E-03 -2.22222320E+00 -2.16037084E+00  2.18657061E-03
 -2.22222320E+00 -2.16037084E+00  2.18657061E-03 -3.56843997E+00  7.82242459E-01
  3.74748440E-03 -3.56843997E+00  7.82242459E-01  3.74748440E-03
Constraint Structure                       R   N=          18
  2.87852034E-01  2.78212131E+00  9.65335100E-05  3.11141330E-01  7.21031037E-01
  3.93692944E-06  2.22917007E+00 -4.63263820E-01  1.74012281E-04 -2.02819963E+00
 -2.89152657E-01 -1.06375834E-03 -2.22222320E+00 -2.16037084E+00  2.18657061E-03
 -3.56843997E+00  7.82242459E-01  3.74748440E-03
Num ILSW                                   I              100
ILSW                                       I   N=         100
           0           1           0           1           2           0
           0           0           0           0           0          -1
           0           0           0           0           2           0
           0           0           1           0           1           0
           1           0           0           0           0           0
           0           0      100000           0          -1           0
           0           0           0           0           0           0
           0           0           0           1           0           0
           0           0           1           0           0           0
           0           0           4          40           0           0
           0           0           0           0           0           0
           0           0           0           0           0           0
           0           0           0           0           0           0
           0           0           0           0           0           0
           0           0           0           0           0           0
           0           0           0           0           0           0
           0           0           0           0
Num RLSW                                   I               40
RLSW                                       R   N=          40
  1.00000000E+00  1.00000000E+00  1.00000000E+00  1.00000000E+00  1.00000000E+00
  0.00000000E+00  0.00000000E+00  1.00000000E+00  0.00000000E+00  0.00000000E+00
  0.00000000E+00  0.00000000E+00  1.00000000E+00  0.00000000E+00  0.00000000E+00
  0.00000000E+00  0.00000000E+00  1.00000000E+00  0.00000000E+00  0.00000000E+00
  0.00000000E+00  0.00000000E+00  1.00000000E+00  0.00000000E+00  0.00000000E+00
  0.00000000E+00  0.00000000E+00  1.00000000E+00  0.00000000E+00  0.00000000E+00
  0.00000000E+00  0.00000000E+00  1.00000000E+00  0.00000000E+00  0.00000000E+00
  0.00000000E+00  0.00000000E+00  0.00000000E+00  1.00000000E+00  1.00000000E+00
MxBond                                     I                3
NBond                                      I   N=           6
           1           3           1           3           1           1
IBond                                      I   N=          18
           2           0           0           1           3           4
           2           0           0           2           5           6
           4           0           0           4           0           0
RBond                                      R   N=          18
  1.00000000E+00  0.00000000E+00  0.00000000E+00  1.00000000E+00  2.00000000E+00
  1.50000000E+00  2.00000000E+00  0.00000000E+00  0.00000000E+00  1.50000000E+00
  1.00000000E+00  1.00000000E+00  1.00000000E+00  0.00000000E+00  0.00000000E+00
  1.00000000E+00  0.00000000E+00  0.00000000E+00
Virial Ratio                               R      2.002047446318277E+00
SCF Energy                                 R     -1.689307027182744E+02
Total Energy                               R     -1.689307027182744E+02
RMS Force                                  R      1.048471937037339E-05
RMS Density                                R      2.049228420620453E-10
External E-field                           R   N=          35
  0.00000000E+00  0.00000000E+00  0.00000000E+00  0.00000000E+00  0.00000000E+00
  0.00000000E+00  0.00000000E+00  0.00000000E+00  0.00000000E+00  0.00000000E+00
  0.00000000E+00  0.00000000E+00  0.00000000E+00  0.00000000E+00  0.00000000E+00
  0.00000000E+00  0.00000000E+00  0.00000000E+00  0.00000000E+00  0.00000000E+00
  0.00000000E+00  0.00000000E+00  0.00000000E+00  0.00000000E+00  0.00000000E+00
  0.00000000E+00  0.00000000E+00  0.00000000E+00  0.00000000E+00  0.00000000E+00
  0.00000000E+00  0.00000000E+00  0.00000000E+00  0.00000000E+00  0.00000000E+00
IOpCl                                      I                0
IROHF                                      I                0
Alpha Orbital Energies                     R   N=          51
 -2.05300666E+01 -1.55911760E+01 -1.13505087E+01 -1.39317878E+00 -1.22012509E+00
 -8.50179648E-01 -7.53355142E-01 -6.73733988E-01 -6.07078926E-01 -5.71583140E-01
 -4.28561513E-01 -4.14898185E-01  2.11686403E-01  2.21345157E-01  2.58691627E-01
  3.17449480E-01  4.28159794E-01  5.46295939E-01  7.50237946E-01  7.57078950E-01
  8.63223198E-01  9.28041062E-01  9.65509181E-01  9.89122242E-01  1.07214332E+00
  1.12011213E+00  1.16984928E+00  1.19860247E+00  1.30835807E+00  1.33534303E+00
  1.46143075E+00  1.57331178E+00  1.64175388E+00  1.74791744E+00  1.75793158E+00
  1.98165532E+00  2.06494109E+00  2.15733050E+00  2.20319747E+00  2.36718844E+00
  2.47685178E+00  2.63454994E+00  2.63884263E+00  2.85674800E+00  2.99712164E+00
  3.04806075E+00  3.31234240E+00  3.41750795E+00  4.16833500E+00  4.30939596E+00
  4.60100702E+00
Alpha MO coefficients                      R   N=        2601
 -2.29743247E-05 -1.68631242E-04 -1.82290773E-06  4.33125664E-04 -1.58759738E-04
  9.29960870E-05 -2.99055968E-08 -4.96578978E-04 -5.05386977E-04  3.96262851E-04
 -7.48759589E-08 -6.89089898E-04 -2.54222544E-04 -7.78255033E-06  4.41754556E-04
 -7.26712897E-08  6.81883773E-08  9.94664740E-01  2.10731847E-02 -1.44907601E-03
  8.52254628E-04 -1.29413620E-07  4.77648628E-03 -6.76506360E-05  5.56216611E-05
  2.23407515E-08 -3.66050984E-03 -3.83923088E-03 -4.18207450E-03 -2.30864129E-04
  2.15105971E-08 -1.05194259E-08 -3.68094973E-06 -2.40625583E-05 -1.63105652E-05
  3.22892635E-05 -1.80896139E-08  1.72404037E-05  3.98139962E-05 -8.18702189E-05
  8.95426379E-08 -4.98331264E-05  6.93092356E-05 -4.01711460E-05  9.39138273E-05
  7.41197738E-08 -1.83493295E-08 -4.40778863E-05 -2.87979666E-05  4.58197378E-05
 -3.97425464E-05 -4.63519108E-05  3.39058770E-05  2.82573441E-05  2.06845891E-04
 -1.92249235E-04 -8.98513093E-05 -4.83970677E-09  1.16912538E-03 -5.67113250E-04
 -4.26400442E-04  7.41427071E-07 -1.23153917E-04 -5.87303225E-05 -5.44029393E-05
 -1.12349944E-05 -3.47728443E-08 -9.63008705E-08  1.42428959E-05  2.49059400E-05
  8.91267871E-06 -7.87027943E-08 -5.97675778E-09 -2.28845577E-04  1.65953037E-04
  1.26086614E-04 -2.47491729E-07 -7.11183476E-06  7.11723271E-05 -1.05864084E-05
 -1.92205692E-05  4.73075760E-08 -5.63165759E-08  9.94847089E-01  2.52973325E-02
  8.38488034E-06  5.93449638E-05  6.10621769E-06 -1.63274614E-03 -3.96302368E-04
 -1.46823330E-04 -3.70111332E-06 -3.64067549E-03 -3.64080699E-03 -3.58702003E-03
  1.01384345E-05 -3.07254273E-09 -4.74046173E-08  2.51324223E-04  2.81632880E-04
  2.27437257E-04  2.95019440E-04 -6.60846458E-05  2.78518809E-03  9.95666423E-01
  2.65042669E-02 -2.09875038E-04 -5.21508794E-04 -6.85437412E-07 -5.65034775E-03
  1.58602926E-03 -2.46953593E-03  5.05995056E-07 -9.99397663E-04 -1.71376553E-03
 -2.73086180E-03 -2.78013675E-04  3.87540257E-07  1.38158318E-07 -3.73613171E-04
  5.33607009E-04 -3.47284121E-04  1.87755211E-04  3.50563091E-08 -2.56921226E-03
  1.41528541E-03 -6.02365733E-04 -4.02230220E-08  1.02220898E-04  1.00202993E-04
  2.61771729E-04 -6.77957823E-05 -2.46340576E-08 -1.39940506E-08 -3.19342987E-04
  1.75087150E-04 -1.19797600E-04 -1.49465461E-04 -6.90754501E-09  8.96942433E-04
 -7.08261808E-04  8.39309248E-04 -1.49712575E-07 -5.94405440E-04 -2.69839449E-04
  3.16303629E-05 -2.83559619E-04 -4.56271846E-07  3.77900410E-07  1.98957388E-04
  2.97815871E-04 -1.75145715E-04 -2.30452180E-04  3.20712002E-02 -1.34249001E-02
 -1.26449080E-01  2.45316395E-01  1.19343272E-01 -1.03776263E-01  6.38947791E-06
  6.39710394E-02 -7.46690673E-03  2.63913499E-02  8.35848436E-06  1.91169096E-02
 -2.30241753E-03 -1.99416337E-02 -2.19610699E-02  2.70186622E-06 -1.29055278E-06
 -1.83486178E-01  4.01887413E-01 -1.19638974E-01  6.88909901E-02 -9.20015695E-06
  3.58561232E-01 -4.48675993E-02  2.08329085E-02 -2.41422408E-06  1.32670367E-02
  2.28116685E-03 -1.96270436E-03 -1.01398725E-02  1.26816139E-06 -1.02458005E-06
 -5.19184943E-02  1.08660545E-01  4.18998258E-02  7.79845699E-03  7.90630575E-05
  9.69255924E-02  2.00946504E-02 -2.18155820E-03  3.99913450E-05  1.04962100E-02
  2.83227625E-03 -2.72250642E-03  2.16095945E-03  1.12976314E-06 -1.73531412E-06
  2.47666317E-02 -7.06850673E-04  2.10224040E-02 -1.55359560E-04  2.20175873E-02
  5.28222163E-04 -4.03226108E-02  8.41540584E-02 -2.02888769E-01 -1.63254453E-03
 -2.18922900E-05  1.77871048E-02 -3.23430786E-03  1.26270709E-02 -3.67613127E-06
  1.00423248E-02 -8.81807672E-04 -3.79723419E-03  2.30757422E-02 -8.91077095E-07
  2.05254487E-06  7.62417248E-02 -1.68958319E-01  1.58400928E-02 -3.04793188E-02
 -1.79549207E-06 -1.57081132E-01  5.81464148E-04 -1.10246501E-02 -2.03901278E-06
 -1.28708054E-03 -3.78618039E-03  5.74939695E-04  3.16844108E-03 -9.64789986E-08
  1.02646594E-06 -1.88297255E-01  3.91594571E-01  2.15156991E-02  2.03227848E-02
  3.46814039E-04  4.04338127E-01  5.71829471E-03  9.06831062E-03  1.96243064E-04
  1.45442602E-02  1.85404226E-02 -1.05763848E-02 -1.64287206E-03 -4.54400641E-05
  3.01026123E-06  1.09692080E-01  7.16668111E-04  1.17893677E-01  1.95611983E-03
  1.74775167E-01  6.19464443E-02 -1.33547133E-01  2.87648375E-01 -1.28172862E-01
  1.40894894E-01 -9.55950058E-05  2.02819857E-01 -3.69343779E-02  7.72680445E-02
  4.05029557E-05  3.08970651E-03  1.49743172E-02 -1.24075969E-02  6.19541949E-03
  2.12002606E-05  1.21084066E-05  6.38038299E-02 -1.46715436E-01 -6.37956854E-02
  7.38436498E-02 -3.91243859E-05 -1.75277966E-01 -3.89382757E-02  3.54830595E-02
 -4.16684243E-05  5.01665154E-04  4.33443710E-04 -9.40956765E-04 -5.83431111E-03
  5.99807595E-06 -5.23203804E-06  4.71125870E-02 -1.00045402E-01  2.39288085E-01
  2.02099825E-01 -3.53138931E-04 -1.44725100E-01  1.24110278E-01  9.40887847E-02
 -2.19849593E-04  3.66584963E-03 -1.80466119E-02  3.35041788E-03  1.31901441E-02
  7.82611112E-05  5.57752960E-05 -1.54761063E-01 -4.23725291E-02 -8.29844309E-02
 -2.30143073E-02 -1.00989094E-01 -7.43435206E-02 -1.70862073E-02  4.53976211E-02
 -1.02144716E-01 -2.39975181E-01 -1.65414124E-04 -1.93898237E-02 -1.72489583E-02
 -3.72554017E-02 -1.87807092E-05 -2.47744702E-03 -1.39792372E-03 -2.52476105E-03
  1.40892967E-02  1.91638667E-05  1.12391458E-05  2.75100836E-02 -6.13192878E-02
 -1.41479687E-01 -9.18891528E-02 -9.84346131E-05 -8.97587101E-02 -7.68566238E-02
 -5.20590702E-02 -5.54616258E-05  1.35305447E-02 -8.30524596E-03 -1.03073502E-03
  1.20149861E-03  9.22417191E-06 -6.52595949E-06  3.31895490E-03 -6.08353432E-03
  3.42435339E-01 -2.42413913E-01 -4.00217339E-04 -2.26491384E-04  1.96608481E-01
 -1.53969210E-01 -2.37520450E-04 -8.97597936E-03  1.59120367E-03  1.14225590E-03
  1.99678307E-02  1.28618262E-04 -1.24331042E-04  1.04739504E-01  2.63645842E-02
 -2.36912212E-01 -8.61551961E-02 -1.40936106E-01 -7.64419754E-02  4.25248455E-02
 -9.35326113E-02 -2.64653859E-01 -1.75467506E-01 -2.01174516E-04 -1.25868058E-01
 -1.36322449E-02 -9.46783007E-02 -2.94260055E-05  1.43845774E-02 -1.71562124E-02
  3.05113452E-03  5.73036612E-03  1.65280548E-05  1.12023020E-05 -5.61463420E-02
  1.27808603E-01  1.08640495E-01 -2.77070663E-01 -1.06346838E-04  2.10119401E-01
  5.43051634E-02 -1.56437893E-01 -7.81401346E-05  1.47043314E-03 -1.31849652E-02
  3.06952566E-03  1.80522542E-02  1.19342854E-05 -6.61397602E-06 -7.82015144E-03
  1.56608152E-02  1.23387868E-01  3.22732785E-01 -2.26606527E-04  3.78905112E-02
  7.33165820E-02  2.22391437E-01 -1.65300044E-04  1.21356548E-02 -2.07433248E-02
  3.60801197E-05 -4.60980755E-03  6.65791904E-06  1.17497598E-04 -1.89531670E-01
 -7.03750113E-02  5.51032018E-02  2.00120017E-02  1.35227378E-01  1.12100863E-01
  2.60277278E-02 -7.48677218E-02 -2.06662278E-01  2.77914875E-01 -3.06505012E-04
  2.66967152E-02 -3.02728751E-02  8.08554495E-02 -1.22515123E-04 -9.03771099E-03
  1.90045469E-02  5.26078559E-03  2.25067206E-02  6.16283210E-06  2.14974953E-05
 -6.18913917E-02  1.38175026E-01  4.35490842E-01 -1.40663262E-01 -2.40749972E-04
  2.87449841E-01  2.55679603E-01 -7.79394190E-02 -1.57733876E-04 -2.90918224E-02
  4.50244783E-03  6.08549423E-03  1.58772245E-02  1.87700231E-05 -1.27930160E-05
 -3.04829344E-03  7.88727323E-03  1.12484286E-01 -1.63845948E-01 -4.66553283E-04
 -2.37127354E-03  6.62290187E-02 -1.07176955E-01 -3.36298749E-04 -1.50991020E-02
  1.32995604E-02  6.07510899E-04  1.43895213E-02  3.93047815E-05 -8.02790482E-05
  1.02086681E-01  6.17977013E-02 -1.21306476E-01 -6.76589858E-02  1.41076465E-04
  1.15256986E-04 -3.64525929E-05  4.45417633E-05 -5.37464765E-04  1.16669865E-04
  3.25873325E-01  1.14139664E-04 -1.07670489E-04  3.17455533E-05  1.65499209E-01
 -2.06208489E-05  3.80345100E-05 -9.52675794E-06  3.35635570E-05  5.29971962E-03
 -1.94553134E-02 -5.10513214E-05  1.10546716E-04  2.56829244E-04 -5.19138968E-04
  3.62222443E-01  2.70769001E-04  1.40389663E-04 -3.31573362E-04  2.43686895E-01
 -9.92453383E-06 -1.80960136E-05  5.09144100E-06  2.89873072E-05 -2.77842216E-02
  1.67290257E-02  1.64126021E-04 -4.04846303E-04  4.97814004E-04 -1.20427028E-04
  3.23170960E-01 -5.52615685E-04  3.96758039E-04 -6.48235736E-05  2.40317874E-01
 -5.31833843E-05 -2.85535890E-05  7.28605960E-05  1.44661386E-05  1.14158155E-02
  5.44049766E-03  1.83651029E-04  9.65430004E-05 -1.03173290E-05 -4.17108773E-05
 -1.72485893E-01 -2.25825803E-01  1.09640646E-02 -9.45906483E-03 -2.82786786E-02
 -1.21339341E-01  3.78306737E-04 -1.19391334E-01  9.76713812E-02  5.38636462E-03
  3.75860293E-04  4.86636231E-02 -5.29806074E-02 -4.86431005E-05  2.64028392E-02
  2.07108377E-04 -3.05284501E-05 -9.24431284E-04  1.06470586E-02  2.78278141E-01
  5.02706776E-01  1.72101362E-03 -2.81939297E-02  2.18788849E-01  3.81117733E-01
  1.34298514E-03 -1.49173656E-02  2.03816052E-02  2.62647047E-03 -1.31961047E-02
 -9.93411858E-05  6.20879336E-05 -3.62977889E-02  6.97717716E-02  1.67929478E-01
  6.84794243E-02 -1.64245331E-03  2.79715706E-01  1.44419828E-01  7.36437346E-02
 -1.44355271E-03 -1.11948977E-03 -1.00697682E-02 -1.59343764E-03  1.98392789E-03
  3.39911080E-05  2.58540577E-06 -3.42610014E-02 -6.86347122E-02 -4.19574505E-02
 -5.08296782E-02 -6.39533706E-04 -9.50751307E-04 -1.29955080E-05  1.02706061E-04
 -3.57208945E-04 -5.20976979E-04 -6.37138442E-02 -5.96222939E-04  3.90593156E-04
  1.82227555E-04 -6.44936462E-02  2.00516925E-04 -1.96347530E-04 -2.50391559E-05
  1.28762243E-04 -4.90682490E-02  6.05186967E-03 -5.34742294E-06  2.70097754E-05
  1.22450580E-03  1.89101321E-03 -3.90951692E-01  1.66412046E-05  9.17670702E-04
  1.45496506E-03 -3.11501600E-01 -6.43751609E-05  6.78439482E-05  8.74527395E-06
 -4.42165223E-05  2.20069535E-02 -1.40039538E-02  7.60863631E-05 -2.79399838E-04
  1.12855897E-03  2.31551376E-04  4.72280009E-01  3.43147993E-04  1.13951160E-03
  1.71997175E-04  4.44161313E-01 -4.87079444E-05 -8.12687407E-05  8.59133743E-05
  5.62624807E-06  1.23367973E-03  3.64959046E-03  1.15589280E-04 -2.20559652E-04
  1.23761263E-04  5.93940611E-05  2.65606095E-04 -2.08036686E-03 -2.11673843E-05
 -1.27842408E-04  5.18717342E-04  7.89980911E-04  4.57000402E-01  2.88662580E-03
 -8.72604690E-06  1.10217167E-03  8.15565176E-01  2.17239616E-05  1.55761549E-05
 -2.15812126E-05  1.11530643E-05 -1.47085424E-02  2.58678237E-02 -4.02127701E-05
  2.32466659E-04 -4.12155365E-04 -6.85549123E-04 -3.36736348E-01 -2.40588606E-04
 -4.20283878E-04 -8.74903093E-04 -5.14368971E-01  6.00893394E-05  2.56633797E-05
  4.60125892E-05 -2.39707814E-05  2.10540570E-04  3.12951592E-03 -1.11455869E-03
  1.33837946E-03 -1.91032552E-03 -3.01028227E-04 -2.18043657E-01  1.60076255E-02
 -5.60656053E-03 -1.41376528E-03 -4.16802217E-01 -2.86007765E-04 -2.28722489E-04
 -3.39116961E-04 -2.29814850E-06  2.82550066E-02  1.66602414E-02 -7.38472779E-04
 -9.98460513E-03 -8.15661536E-04 -1.32421841E-02  3.60178893E-02 -2.68647848E-01
 -3.17977376E-03  4.21651117E-03  5.93803627E-02  1.01837732E-01 -4.06928715E-03
  2.48203423E-01  8.42744260E-02  1.58813051E-01 -8.17010709E-03  3.41130296E-03
  4.14045663E-03 -2.59327430E-03  1.42005491E-03  1.06443236E-04 -2.60126144E-04
 -4.28036663E-03  2.65686068E-02 -5.25075848E-02 -7.77601133E-02  3.03595069E-03
 -3.66634960E-02 -6.39540940E-02 -1.10583259E-01  4.83955988E-03  7.16390301E-03
  3.17614276E-03  5.16915651E-03 -2.55038166E-03 -1.60461004E-05 -2.92334983E-05
 -1.10403580E-01  1.21054626E-01 -1.82502396E-01 -9.46486458E-03  2.75145654E-03
  1.71605139E+00 -5.76992092E-01 -4.40342214E-02  6.49877049E-03 -2.94878024E-02
 -2.41639266E-02 -3.44151038E-02  1.56895549E-04 -3.10601575E-04 -1.55662918E-04
 -4.33768199E-02 -9.31811174E-01 -4.71939030E-02 -1.53009323E+00 -3.60120494E-02
 -1.36155341E+00 -6.40341622E-02  7.26192941E-02 -3.93332224E-02  1.98707045E-01
  3.22790167E-04  1.16178906E+00 -1.22135031E-01  5.05686057E-01  4.99436299E-04
  7.38705603E-03 -9.50135213E-03 -2.98575184E-03 -1.52292842E-02 -5.58877517E-06
 -4.20419986E-06  1.30408767E-03 -3.14623157E-03 -1.54631170E-02 -2.07099710E-02
 -3.02005415E-04 -1.55077596E-02 -2.64052185E-02 -1.04127244E-01 -3.86858803E-04
 -6.58924768E-03 -1.02474033E-05  3.40934776E-03  1.17830606E-03 -1.07059016E-05
 -5.47258293E-06  4.29839390E-02 -5.39599426E-02 -9.10255012E-02  2.04514372E-01
 -2.54964053E-04 -6.74027043E-01 -3.54856528E-01  6.52275095E-01 -5.24177919E-04
  1.36642587E-03  1.34053491E-02  1.14409268E-02  1.08919450E-02  2.43205934E-06
  4.93004132E-05  5.16475736E-02  1.40764669E+00 -2.38986809E-02 -7.38258622E-01
 -8.73300527E-03  1.85483277E+00  8.88945273E-02 -1.00822392E-01  2.94219165E-02
 -1.95902309E-01  2.22787913E-04 -1.60004617E+00  3.07800737E-01 -1.01746103E+00
  2.74895556E-04  1.84543321E-02 -4.95522976E-03 -2.76987991E-03 -8.27330757E-03
 -4.71817218E-06 -2.19394845E-05 -4.57937477E-03  4.63573520E-02 -5.44354914E-02
  8.84801564E-02 -2.15725121E-04 -1.71264052E-01  2.19448237E-02  1.78724879E-01
 -2.24144769E-04  7.65285214E-03  1.58895013E-02  5.70881952E-03  5.88161692E-04
 -1.35742381E-05 -5.33503147E-06 -2.07272485E-02  3.24108364E-02 -2.18811003E-02
  2.21757314E-01  1.02804021E-04  3.20165673E-01 -1.71805322E-01  1.10204557E+00
  3.36545347E-04 -4.61070920E-03  1.50406404E-03 -3.48200691E-03 -1.12688092E-02
  1.08243439E-05  7.89205184E-05  2.40144708E-02  1.17318583E+00 -1.85319244E-02
 -1.16919553E+00  3.94156863E-02 -3.04627493E-01  3.14769727E-02  4.32724483E-02
 -7.39352751E-02  5.14355474E-02 -8.10364917E-06 -1.63464394E+00 -2.26788744E+00
  1.23134756E+00 -3.82630530E-04 -6.90014482E-03 -3.10206330E-03 -5.59544426E-03
 -3.81831220E-03 -1.04879750E-06 -4.20899626E-06 -1.17291125E-01  1.81700442E-02
 -8.04241381E-02  8.80582470E-02  4.70493728E-05  2.68772106E+00 -8.32687503E-01
  5.87907533E-01 -7.75378338E-06 -2.40088253E-02 -6.38992003E-02 -9.09751443E-02
 -4.72363222E-02  7.22936776E-06 -1.78526808E-06  2.66000809E-03  3.73596961E-02
  1.34044490E-02 -3.56406811E-02  7.64858615E-05 -5.41443678E-01  4.74534153E-02
 -5.69123451E-01 -7.48714392E-05 -9.88926922E-03  4.14235357E-02 -3.53104012E-04
  1.95999186E-02  6.15316038E-05 -7.50817681E-05  1.08323144E-01 -2.62626441E-01
 -9.10347038E-02  1.29048918E-01 -9.73259793E-02  8.06000932E-01 -8.35800703E-02
 -7.66792277E-02 -2.10995917E-01 -2.79902737E-01  1.54475447E-04  2.99603400E+00
 -1.91661982E+00 -1.81968496E+00 -2.02107739E-03 -7.80702367E-03 -2.04124983E-02
  2.27103334E-02 -1.75644058E-02 -7.95318613E-05 -8.24275870E-05  2.77948722E-02
 -2.12992855E-02  1.33229304E-01  1.12133546E-01  1.35693536E-04 -5.10175576E-01
  6.20844823E-01  3.34437338E-01  5.39206916E-04 -8.35652188E-03 -3.27744436E-03
  3.63627602E-02  3.46439854E-03 -4.27889957E-05 -9.17285234E-06  8.18743973E-02
 -1.05651323E-01 -2.33421986E-01 -1.09171083E-01  5.25526298E-04 -2.15793683E+00
 -2.11712827E+00 -5.68195697E-01  5.67334761E-04  7.79151699E-03 -2.88868360E-02
  3.21664703E-02  8.79163049E-03 -2.57720606E-05 -2.68414330E-05 -8.41632695E-02
 -4.15188387E-01 -7.55936435E-02 -7.81323640E-01 -6.95922831E-04  9.32022932E-04
 -1.04541392E-04 -3.68614969E-03  3.13074185E-03  1.69679659E-03 -1.01947384E+00
  6.76180767E-03 -4.84988444E-03 -4.29645359E-03  1.20156644E+00 -3.78629838E-04
 -4.69641906E-04 -4.07186561E-05 -1.13897047E-04  1.99583869E-02  3.07319064E-02
  7.76728571E-05 -4.13500455E-04  1.23475166E-04  3.78775386E-04 -4.29710781E-02
 -8.06430806E-04  1.43464104E-03  3.41307763E-04 -1.24580201E-01 -2.81920766E-04
  5.24632492E-05  2.03879220E-05 -1.06842005E-04  7.09653123E-02 -3.93709587E-02
 -1.45832440E-04  7.13207297E-05 -1.15938748E-03 -5.22775215E-04 -1.89776944E-01
 -2.77705182E-03  8.92198192E-04  1.22399788E-03 -4.64711689E-02 -5.62470678E-04
  9.27442296E-05  2.81908891E-04 -2.91295633E-04 -5.91341553E-02 -2.00402153E-02
  1.89069351E-04 -7.32847013E-04 -2.68220828E-04 -9.17270326E-04 -1.21840262E-01
  1.77700969E-01 -6.43737448E-03 -7.65069282E-01  6.72499644E-01  4.25983188E-01
  4.77178722E-03  1.16164634E+00 -7.99745303E-01 -8.71207614E-01 -5.75675489E-03
 -4.51156017E-02 -8.45016308E-02 -2.38523672E-02 -3.70353254E-03 -1.08500855E-04
 -1.77181932E-04  1.43994473E-02 -8.12996506E-02  6.60573753E-03  7.09555511E-02
  2.56217783E-04 -1.85073625E-01  2.61111088E-01  3.72867129E-02  6.22516898E-04
 -6.46651410E-02  1.79165445E-02 -1.97197112E-03 -2.14395433E-02 -3.31681397E-04
  1.71557231E-04 -3.58324329E-02 -2.93198558E-02 -1.00552965E-01 -1.00932633E-01
  1.10403175E-03 -4.43623728E-01  2.84020876E-01  3.29108402E-01  1.27836749E-04
 -1.68237591E-01  1.08246631E-02  5.17212234E-02 -8.77515978E-02  2.71535120E-04
  7.21394981E-05  5.69038186E-02 -7.80895723E-02 -3.65783579E-02 -2.60661351E-02
 -6.32970157E-01 -5.48966030E-01 -1.49313787E-02 -5.51988876E-01 -7.57169833E-02
 -3.04590661E-01 -1.34547188E-04  1.49191819E+00  4.67997964E-01  1.08830557E+00
 -2.04281796E-04  1.46053237E-02 -1.61587940E-01  1.39499804E-02 -5.39712272E-02