formamide ts-1 structure                                                
Freq      RHF                                                         6-31G(d)            
Number of atoms                            I                6
Info1-9                                    I   N=           9
          15          15        1002           0           1         100
           6           1           2
Charge                                     I                0
Multiplicity                               I                1
Number of electrons                        I               24
Number of alpha electrons                  I               12
Number of beta electrons                   I               12
Number of basis functions                  I               51
Number of independent functions            I               51
Number of point charges in /Mol/           I                0
Number of translation vectors              I                0
Atomic numbers                             I   N=           6
           1           6           8           7           1           1
Nuclear charges                            R   N=           6
  1.00000000E+00  6.00000000E+00  8.00000000E+00  7.00000000E+00  1.00000000E+00
  1.00000000E+00
Current cartesian coordinates              R   N=          18
  5.85654474E-01  2.81204477E+00  1.22832199E-04  3.83113628E-01  7.67465026E-01
 -6.99198669E-05  2.16549954E+00 -5.82073443E-01 -3.59047965E-05 -2.18461034E+00
 -5.84926930E-02  3.77945227E-06 -2.45733561E+00 -1.17524525E+00  1.51283159E+00
 -2.45872456E+00 -1.17554383E+00 -1.51228924E+00
Force Field                                I                0
Int Atom Types                             I   N=           6
           0           0           0           0           0           0
MM charges                                 R   N=           6
  0.00000000E+00  0.00000000E+00  0.00000000E+00  0.00000000E+00  0.00000000E+00
  0.00000000E+00
Integer atomic weights                     I   N=           6
           1          12          16          14           1           1
Real atomic weights                        R   N=           6
  1.00782504E+00  1.20000000E+01  1.59949146E+01  1.40030740E+01  1.00782504E+00
  1.00782504E+00
Atom fragment info                         I   N=           6
           0           0           0           0           0           0
Atom residue num                           I   N=           6
           0           0           0           0           0           0
Nuclear spins                              I   N=           6
           1           0           0           2           1           1
Nuclear ZEff                               R   N=           6
 -1.00000000E+00 -3.60000000E+00 -5.60000000E+00 -4.55000000E+00 -1.00000000E+00
 -1.00000000E+00
Nuclear QMom                               R   N=           6
  0.00000000E+00  0.00000000E+00  0.00000000E+00  2.04400000E+00  0.00000000E+00
  0.00000000E+00
Nuclear GFac                               R   N=           6
  2.79284600E+00  0.00000000E+00  0.00000000E+00  4.03761000E-01  2.79284600E+00
  2.79284600E+00
MicOpt                                     I   N=           6
          -1          -1          -1          -1          -1          -1
Number of contracted shells                I               18
Number of primitive shells                 I               45
Pure/Cartesian d shells                    I                1
Pure/Cartesian f shells                    I                0
Highest angular momentum                   I                2
Largest degree of contraction              I                6
Shell types                                I   N=          18
           0           0           0          -1          -1           2
           0          -1          -1           2           0          -1
          -1           2           0           0           0           0
Number of primitives per shell             I   N=          18
           3           1           6           3           1           1
           6           3           1           1           6           3
           1           1           3           1           3           1
Shell to atom map                          I   N=          18
           1           1           2           2           2           2
           3           3           3           3           4           4
           4           4           5           5           6           6
Primitive exponents                        R   N=          45
  1.87311370E+01  2.82539436E+00  6.40121692E-01  1.61277759E-01  3.04752488E+03
  4.57369518E+02  1.03948685E+02  2.92101553E+01  9.28666296E+00  3.16392696E+00
  7.86827235E+00  1.88128854E+00  5.44249258E-01  1.68714478E-01  8.00000000E-01
  5.48467166E+03  8.25234946E+02  1.88046958E+02  5.29645000E+01  1.68975704E+01
  5.79963534E+00  1.55396162E+01  3.59993359E+00  1.01376175E+00  2.70005823E-01
  8.00000000E-01  4.17351146E+03  6.27457911E+02  1.42902093E+02  4.02343293E+01
  1.28202129E+01  4.39043701E+00  1.16263619E+01  2.71627981E+00  7.72218397E-01
  2.12031498E-01  8.00000000E-01  1.87311370E+01  2.82539436E+00  6.40121692E-01
  1.61277759E-01  1.87311370E+01  2.82539436E+00  6.40121692E-01  1.61277759E-01
Contraction coefficients                   R   N=          45
  3.34946043E-02  2.34726953E-01  8.13757326E-01  1.00000000E+00  1.83473713E-03
  1.40373228E-02  6.88426223E-02  2.32184443E-01  4.67941348E-01  3.62311985E-01
 -1.19332420E-01 -1.60854152E-01  1.14345644E+00  1.00000000E+00  1.00000000E+00
  1.83107443E-03  1.39501722E-02  6.84450781E-02  2.32714336E-01  4.70192898E-01
  3.58520853E-01 -1.10777550E-01 -1.48026263E-01  1.13076702E+00  1.00000000E+00
  1.00000000E+00  1.83477216E-03  1.39946270E-02  6.85865518E-02  2.32240873E-01
  4.69069948E-01  3.60455199E-01 -1.14961182E-01 -1.69117479E-01  1.14585195E+00
  1.00000000E+00  1.00000000E+00  3.34946043E-02  2.34726953E-01  8.13757326E-01
  1.00000000E+00  3.34946043E-02  2.34726953E-01  8.13757326E-01  1.00000000E+00
P(S=P) Contraction coefficients            R   N=          45
  0.00000000E+00  0.00000000E+00  0.00000000E+00  0.00000000E+00  0.00000000E+00
  0.00000000E+00  0.00000000E+00  0.00000000E+00  0.00000000E+00  0.00000000E+00
  6.89990666E-02  3.16423961E-01  7.44308291E-01  1.00000000E+00  0.00000000E+00
  0.00000000E+00  0.00000000E+00  0.00000000E+00  0.00000000E+00  0.00000000E+00
  0.00000000E+00  7.08742682E-02  3.39752839E-01  7.27158577E-01  1.00000000E+00
  0.00000000E+00  0.00000000E+00  0.00000000E+00  0.00000000E+00  0.00000000E+00
  0.00000000E+00  0.00000000E+00  6.75797439E-02  3.23907296E-01  7.40895140E-01
  1.00000000E+00  0.00000000E+00  0.00000000E+00  0.00000000E+00  0.00000000E+00
  0.00000000E+00  0.00000000E+00  0.00000000E+00  0.00000000E+00  0.00000000E+00
Coordinates of each shell                  R   N=          54
  5.85654598E-01  2.81204435E+00  1.23462107E-04  5.85654598E-01  2.81204435E+00
  1.23462107E-04  3.83113661E-01  7.67464615E-01 -6.92899582E-05  3.83113661E-01
  7.67464615E-01 -6.92899582E-05  3.83113661E-01  7.67464615E-01 -6.92899582E-05
  3.83113661E-01  7.67464615E-01 -6.92899582E-05  2.16549951E+00 -5.82073932E-01
 -3.52748878E-05  2.16549951E+00 -5.82073932E-01 -3.52748878E-05  2.16549951E+00
 -5.82073932E-01 -3.52748878E-05  2.16549951E+00 -5.82073932E-01 -3.52748878E-05
 -2.18461034E+00 -5.84929908E-02  4.40936098E-06 -2.18461034E+00 -5.84929908E-02
  4.40936098E-06 -2.18461034E+00 -5.84929908E-02  4.40936098E-06 -2.18461034E+00
 -5.84929908E-02  4.40936098E-06 -2.45733566E+00 -1.17524553E+00  1.51283222E+00
 -2.45733566E+00 -1.17524553E+00  1.51283222E+00 -2.45872461E+00 -1.17554411E+00
 -1.51228861E+00 -2.45872461E+00 -1.17554411E+00 -1.51228861E+00
Constraint Structure                       R   N=          18
  5.85654598E-01  2.81204435E+00  1.23462107E-04  3.83113661E-01  7.67464615E-01
 -6.92899582E-05  2.16549951E+00 -5.82073932E-01 -3.52748878E-05 -2.18461034E+00
 -5.84929908E-02  4.40936098E-06 -2.45733566E+00 -1.17524553E+00  1.51283222E+00
 -2.45872461E+00 -1.17554411E+00 -1.51228861E+00
Num ILSW                                   I              100
ILSW                                       I   N=         100
           0           1           0           0           2           0
           0           0           0           0           0          -1
           0           0           0           0           2           0
           0           0           1           0           1           0
           1           0           0           0           0           0
           0           0      100000           0          -1           0
           0           0           0           0           0           0
           0           0           0           1           0           0
           0           0           1           0           0           0
           0           0           4          40           0           0
           0           0           0           0           0           0
           0           0           0           0           0           0
           0           0           0           0           0           0
           0           0           0           0           0           0
           0           0           0           0           0           0
           0           0           0           0           0           0
           0           0           0           0
Num RLSW                                   I               40
RLSW                                       R   N=          40
  1.00000000E+00  1.00000000E+00  1.00000000E+00  1.00000000E+00  1.00000000E+00
  0.00000000E+00  0.00000000E+00  1.00000000E+00  0.00000000E+00  0.00000000E+00
  0.00000000E+00  0.00000000E+00  1.00000000E+00  0.00000000E+00  0.00000000E+00
  0.00000000E+00  0.00000000E+00  1.00000000E+00  0.00000000E+00  0.00000000E+00
  0.00000000E+00  0.00000000E+00  1.00000000E+00  0.00000000E+00  0.00000000E+00
  0.00000000E+00  0.00000000E+00  1.00000000E+00  0.00000000E+00  0.00000000E+00
  0.00000000E+00  0.00000000E+00  1.00000000E+00  0.00000000E+00  0.00000000E+00
  0.00000000E+00  0.00000000E+00  0.00000000E+00  1.00000000E+00  1.00000000E+00
MxBond                                     I                3
NBond                                      I   N=           6
           1           3           1           3           1           1
IBond                                      I   N=          18
           2           0           0           1           3           4
           2           0           0           2           5           6
           4           0           0           4           0           0
RBond                                      R   N=          18
  1.00000000E+00  0.00000000E+00  0.00000000E+00  1.00000000E+00  2.00000000E+00
  1.00000000E+00  2.00000000E+00  0.00000000E+00  0.00000000E+00  1.00000000E+00
  1.00000000E+00  1.00000000E+00  1.00000000E+00  0.00000000E+00  0.00000000E+00
  1.00000000E+00  0.00000000E+00  0.00000000E+00
Virial Ratio                               R      2.001968478368879E+00
SCF Energy                                 R     -1.689056923031756E+02
Total Energy                               R     -1.689056923031756E+02
RMS Force                                  R      2.296765657075890E-05
RMS Density                                R      7.627787500905209E-10
External E-field                           R   N=          35
  0.00000000E+00  0.00000000E+00  0.00000000E+00  0.00000000E+00  0.00000000E+00
  0.00000000E+00  0.00000000E+00  0.00000000E+00  0.00000000E+00  0.00000000E+00
  0.00000000E+00  0.00000000E+00  0.00000000E+00  0.00000000E+00  0.00000000E+00
  0.00000000E+00  0.00000000E+00  0.00000000E+00  0.00000000E+00  0.00000000E+00
  0.00000000E+00  0.00000000E+00  0.00000000E+00  0.00000000E+00  0.00000000E+00
  0.00000000E+00  0.00000000E+00  0.00000000E+00  0.00000000E+00  0.00000000E+00
  0.00000000E+00  0.00000000E+00  0.00000000E+00  0.00000000E+00  0.00000000E+00
IOpCl                                      I                0
IROHF                                      I                0
Alpha Orbital Energies                     R   N=          51
 -2.05766392E+01 -1.55695458E+01 -1.13622171E+01 -1.42752320E+00 -1.20028727E+00
 -8.40804808E-01 -6.87149662E-01 -6.87085744E-01 -6.66955690E-01 -5.28423783E-01
 -4.65936681E-01 -4.33433906E-01  1.52022162E-01  2.21613842E-01  2.91669586E-01
  3.06835552E-01  4.36089056E-01  5.03689130E-01  7.48426670E-01  7.64335468E-01
  8.98372537E-01  9.47761066E-01  9.64570146E-01  9.93738296E-01  1.08698268E+00
  1.10550881E+00  1.13370930E+00  1.18180061E+00  1.21376467E+00  1.29262946E+00
  1.36212367E+00  1.46003363E+00  1.65788779E+00  1.72755625E+00  1.79861913E+00
  1.97170173E+00  2.10144921E+00  2.12267611E+00  2.16688848E+00  2.31862392E+00
  2.43831314E+00  2.55217698E+00  2.69972894E+00  2.76996314E+00  2.97120607E+00
  3.01002305E+00  3.24977047E+00  3.34713123E+00  4.17425061E+00  4.23486243E+00
  4.57415952E+00
Alpha MO coefficients                      R   N=        2601
 -2.05178971E-05 -1.58762281E-04 -1.34220895E-06  3.78085507E-04 -1.80657770E-04
  1.29226474E-04 -6.24698694E-09 -4.69766851E-04 -4.72760471E-04  4.00637407E-04
  1.42734174E-08 -5.89424291E-04 -3.33563666E-04  8.21632769E-06  4.67633612E-04
 -1.72024529E-08  1.19050096E-09  9.94670144E-01  2.10566256E-02 -1.32276797E-03
  9.72560745E-04 -2.38418910E-08  4.78530725E-03 -9.52604907E-05  8.40609102E-05
 -6.43944450E-09 -3.66175697E-03 -3.77638946E-03 -4.25300267E-03 -2.59699829E-04
  3.21029754E-08  1.72126859E-08 -1.17447820E-06 -5.16957442E-06 -1.92742970E-05
  2.78401917E-05 -6.50429580E-09 -6.40754414E-05 -6.78910800E-06 -5.06284210E-05
  1.38262353E-08 -1.66557377E-05  3.21367266E-05 -2.11133482E-05  7.24228436E-05
 -5.46352425E-09  2.67732116E-09  7.98273265E-06 -2.50813256E-05  7.95134522E-06
 -2.50164030E-05 -1.48662909E-05  2.51209410E-04  8.24086724E-06  3.14677459E-04
 -2.32645768E-04 -3.90445949E-05  1.87173080E-09  9.87486013E-04 -4.72702129E-04
 -7.34558363E-04 -1.28395945E-07 -2.21426055E-04 -3.73858252E-05 -8.18670539E-05
 -6.54331010E-05  4.93573820E-08  2.41996853E-08 -1.70791114E-07 -4.06633070E-05
  6.14700205E-05  3.42906452E-06  8.40953742E-10 -1.37272122E-04  6.67354508E-05
  1.49933710E-04  2.81416964E-08 -3.97550536E-05  4.39450441E-05 -9.23524577E-05
 -2.41619077E-05 -2.66302502E-09 -1.12152116E-09  9.94975034E-01  2.50859023E-02
  1.02165271E-03 -1.11284978E-03 -8.73526067E-08 -2.43415756E-03 -9.80010934E-04
  7.85342770E-04  6.13072825E-09 -3.41123162E-03 -3.30765625E-03 -3.46312792E-03
 -8.49563007E-05  2.63877764E-08  9.77277218E-08  2.99008077E-04  5.55232143E-04
  2.98895694E-04  5.55245942E-04 -8.94186533E-05  2.49795494E-03  9.95685180E-01
  2.64869688E-02  1.05083221E-04 -6.44712692E-04  2.17058228E-07 -6.09832581E-03
  1.34303040E-03 -1.92128282E-03 -2.46106553E-07 -1.21610958E-03 -1.61760163E-03
 -2.64419669E-03 -4.62062053E-04 -3.69173084E-08  2.42891577E-08 -4.33351720E-04
  4.54988160E-04 -3.17185715E-04  2.45698439E-04 -7.52804733E-09 -2.00357849E-03
  1.21663219E-03 -7.73235984E-04  7.42426739E-08  8.76453913E-06  3.98021597E-05
  2.02089715E-04 -7.29052405E-05 -2.31958296E-08 -2.57869021E-10 -1.67488738E-04
  3.49316239E-04 -6.54964882E-05 -1.18732784E-04  2.23305469E-08  2.09226934E-04
 -6.30654705E-05  7.79717480E-04 -5.74239218E-07 -5.20361122E-04 -4.75906652E-06
  4.80858135E-05 -2.14401218E-04 -4.92560523E-08  8.92951215E-08  8.62335123E-05
  4.91499871E-04  8.60366087E-05  4.90582802E-04  2.92812176E-02 -1.17326976E-02
 -1.20698757E-01  2.31761531E-01  1.29927393E-01 -1.16108885E-01  5.86103367E-06
  6.84835103E-02 -6.66605876E-03  1.81824843E-02  2.15260011E-06  1.45047293E-02
  1.48096059E-03 -1.84322947E-02 -2.61683665E-02  5.61399989E-07 -1.41216567E-06
 -1.90575030E-01  4.22212858E-01 -1.16546507E-01  8.44952301E-02 -7.96463082E-07
  3.59509929E-01 -3.90924408E-02  2.53684519E-02  3.59728107E-07  1.19598840E-02
  5.18810100E-03 -8.31332293E-04 -1.16193860E-02 -1.94749225E-07 -4.12594271E-07
 -3.33274031E-02  6.91326058E-02  3.59861714E-02 -5.32711302E-03  2.20830683E-06
  5.73209785E-02  1.63790093E-02 -7.11818440E-03  1.54369931E-06  8.65382358E-03
 -4.66673135E-04  1.68158065E-03  1.63859833E-03  1.86395773E-06 -7.14028096E-07
  1.69047118E-02 -5.66334795E-04  1.68953740E-02 -5.65084919E-04  2.07499921E-02
  1.43375129E-03 -4.50475198E-02  9.21827944E-02 -1.78471100E-01  2.41662986E-05
  5.17979108E-06  4.50006594E-02 -4.29537573E-03  5.16056468E-04  3.86453998E-06
  1.61630022E-02 -1.53230553E-03 -4.65909261E-03  2.12663125E-02 -7.26633961E-07
 -1.02881318E-06  6.06488495E-02 -1.31332264E-01 -1.44329740E-03 -2.61694897E-02
  2.87905277E-06 -1.45745116E-01  2.32977025E-03 -1.08126040E-02  1.38978357E-06
  8.13750381E-04 -2.54518826E-03  2.59234403E-03  2.29466869E-03 -3.20911312E-07
  7.00973441E-08 -1.87921009E-01  3.90123349E-01  6.28761987E-02 -5.22617353E-02
  1.43605990E-05  4.07981235E-01  3.07394211E-02 -2.98767804E-02  1.02442658E-05
  2.48117370E-03  5.48161116E-03  1.49734541E-02  7.14336997E-03  1.38944944E-05
 -1.56855952E-06  1.23213493E-01  1.17273980E-03  1.23199112E-01  1.17759368E-03
  2.01656136E-01  7.63266805E-02 -1.42548782E-01  3.09640368E-01 -5.94739007E-02
  1.86395146E-01  2.13470733E-05  2.65733490E-01 -1.68928602E-02  7.05956938E-02
  8.48903397E-06  1.41132977E-03  1.65864355E-02 -1.14074377E-02  5.27848730E-03
 -5.24801075E-07  3.29818761E-06  7.26632739E-02 -1.63695522E-01 -7.75039221E-02
  1.33841450E-01  7.68669862E-06 -2.39460290E-01 -3.83467331E-02  6.25846525E-02
  2.65819995E-06  3.46507110E-04  5.52173979E-03  1.45860986E-04 -8.19340970E-03
 -9.27652035E-07  5.02623892E-07  3.98732455E-02 -8.09308662E-02  1.54198330E-01
  1.79297526E-01  4.22417630E-05 -1.27811137E-01  6.76139967E-02  8.66382413E-02
  2.40486871E-05  2.11955079E-02 -1.18020974E-02 -1.33246768E-02  4.57157642E-03
 -9.63803349E-06 -7.65120207E-06 -9.74075984E-02 -3.32216191E-02 -9.75098444E-02
 -3.32395021E-02 -1.14789100E-01 -7.11435468E-02 -1.70406193E-02  4.46693306E-02
 -1.17898844E-01 -2.48588667E-01  1.04030298E-01 -8.43499940E-03 -3.33636242E-02
 -8.79653289E-02  4.27470364E-02  2.59923816E-03 -5.94623806E-03 -2.96612883E-03
 -3.17071000E-03 -4.65566972E-03 -8.61126252E-03  1.96250606E-02 -4.35754271E-02
 -2.26465110E-01 -1.20876040E-01  8.59070423E-02 -8.72594954E-02 -1.29001699E-01
 -7.35951617E-02  5.48081570E-02  1.84393150E-02 -1.24928888E-02 -1.23847498E-03
 -5.31787110E-04 -7.17497588E-03  5.15790111E-03  1.72677279E-02 -3.80404430E-02
  1.90083993E-01  5.29789121E-02  3.04395345E-01 -5.44015173E-02  1.13488895E-01
  3.23476947E-02  1.82025000E-01  1.81980510E-02 -9.67727783E-03 -1.05116110E-02
 -5.05460822E-03  6.71642506E-03 -2.77395300E-02  9.35011672E-02  4.63795529E-02
 -2.00777316E-01 -1.00593812E-01  1.07379465E-01  6.65844134E-02  1.60154537E-02
 -4.19763842E-02  1.09976205E-01  2.32688090E-01  1.11282916E-01  7.82736213E-03
  3.11892495E-02  8.22592391E-02  4.57346670E-02 -2.42572422E-03  5.55940088E-03
  2.78643639E-03  2.99094864E-03 -4.97244620E-03 -9.20216521E-03 -1.84551458E-02
  4.09906660E-02  2.12313760E-01  1.12729713E-01  9.19218081E-02  8.20003655E-02
  1.20947949E-01  6.86603563E-02  5.86432144E-02 -1.72673034E-02  1.16818416E-02
  1.16819848E-03  5.25156828E-04 -7.67556242E-03  5.51768988E-03 -1.61482934E-02
  3.55785981E-02 -1.77584516E-01 -4.94109776E-02  3.25388475E-01  5.08567420E-02
 -1.06052776E-01 -3.01531593E-02  1.94590073E-01 -1.70231925E-02  9.03912763E-03
  9.84692723E-03  4.70960194E-03  7.19411737E-03 -2.96424610E-02  2.07369250E-01
  1.03910294E-01 -1.07053244E-01 -5.31765024E-02  2.55810662E-02  3.34817147E-02
  2.86907696E-02 -7.36241019E-02 -3.20624059E-01  1.33818413E-01 -1.51576820E-04
  4.30487935E-03 -4.48092348E-02 -4.17112009E-03 -6.76757673E-05  6.34952044E-03
  1.93312619E-03  4.82427536E-03  1.66965645E-02  3.80827013E-06  1.36083387E-05
 -7.46776433E-02  1.71070926E-01  3.35317340E-01 -3.34063186E-01 -1.23163410E-04
  3.13530094E-01  1.85009575E-01 -1.87966385E-01 -7.86864625E-05 -1.29675906E-02
 -9.32958995E-03  6.98722907E-03  2.38886527E-02  1.01715039E-05 -6.83362961E-06
 -9.48003677E-03  2.51191881E-02  1.29549572E-01  1.93835187E-01 -3.72415786E-04
  2.16791138E-02  6.69085123E-02  1.27595243E-01 -2.27786261E-04  1.29026505E-02
 -9.51598353E-03 -7.53176005E-03  5.35662117E-03 -1.56940392E-05  3.05425941E-05
 -6.99392462E-02 -3.01230472E-02 -6.96363615E-02 -2.99536803E-02  6.66829471E-06
  4.80740942E-06 -7.23935082E-06  1.58097955E-05 -5.04393209E-05 -2.98489086E-05
  2.93081033E-01  4.28721297E-05 -3.99629602E-05 -2.25653717E-05  1.85126405E-01
 -7.60936220E-06  6.20020771E-06  1.21377503E-06 -3.87440190E-06  3.48229064E-02
 -2.06130741E-02 -1.05850879E-07 -1.48738006E-06 -8.46078184E-05 -1.01294316E-04
  4.87389768E-01  4.64410925E-06 -5.99996119E-05 -6.99616254E-05  3.49802122E-01
  7.00471149E-06 -7.48438481E-06 -9.83298040E-07  1.75452206E-06 -3.26488022E-02
  2.41381054E-02  4.38277629E-06 -3.39886281E-06 -2.06007532E-05  4.28937528E-05
 -1.67239393E-01 -5.21683188E-05 -2.74491463E-05  2.87460063E-05 -1.37772184E-01
  8.81691240E-06  5.97810404E-07 -7.99202250E-06  7.66113185E-06  5.71056082E-03
  1.90429386E-02 -9.36572245E-02 -5.30987827E-02  9.36118342E-02  5.30759723E-02
 -1.92693895E-01 -2.05880515E-01  1.90496227E-02 -3.18932053E-02  3.89418758E-03
 -1.71140393E-01  2.42559028E-06 -1.16433379E-01 -3.07731669E-03 -3.78730975E-02
  2.19921481E-06  4.76321475E-02 -5.12308093E-02 -2.77205987E-03 -1.19403723E-02
  3.34881374E-06 -3.71821722E-06 -5.18747237E-03  1.09618351E-02  1.09447662E-01
  3.48465092E-01  4.62308358E-05  2.24714556E-02  8.97390050E-02  2.69025150E-01
  3.52765335E-05 -6.49709120E-03  9.34002294E-03 -2.04581328E-03 -9.01895903E-03
 -1.89318637E-06  1.70337412E-06 -6.20344274E-02  1.38223593E-01 -6.60489715E-02
  3.78191459E-01  1.56339229E-05  2.98885217E-01 -7.02746261E-02  3.12826365E-01
  2.14779945E-05  7.74458880E-03 -2.07910376E-02  8.31892989E-04  1.17756256E-02
 -4.02945945E-06 -7.74296464E-07 -8.14122367E-02 -7.41357275E-02 -8.14284727E-02
 -7.41221330E-02 -7.25733494E-02 -9.03502151E-02 -6.57846308E-03  2.32283235E-02
 -1.08319410E-01 -5.83481673E-02 -3.85699567E-06 -1.47206966E-02  7.72658284E-02
 -3.60438471E-02  1.70269335E-06  2.70475626E-02 -2.71841541E-02  8.64916222E-04
  2.99491744E-02  9.53304011E-06 -4.03674973E-06  5.11413258E-03  9.64650083E-04
  3.20188884E-01  2.95846314E-01  8.41452450E-05 -7.10133500E-02  2.54543293E-01
  2.20233914E-01  6.78831302E-05 -1.26561601E-02  1.76592661E-02  5.25995003E-03
 -1.49051934E-03 -3.24950370E-06  2.76872139E-06  2.38229441E-02 -6.60079426E-02
  3.76715788E-01 -2.57016944E-01 -1.40306420E-04 -2.00350860E-02  3.39996433E-01
 -2.10191904E-01 -1.12422893E-04  1.09026391E-02  6.10651488E-04 -1.03807742E-02
 -1.51778495E-02 -3.85911787E-06  3.33697276E-06  2.40224329E-02 -8.43145294E-03
  2.40424113E-02 -8.38074757E-03  6.25796144E-06 -9.90768384E-06 -6.64906935E-06
  1.97980714E-05 -4.84935732E-05 -3.29344852E-05  4.30623594E-01  3.13811527E-05
 -2.92450737E-05 -9.37060841E-05  6.90442648E-01  1.89761603E-06 -3.90193833E-06
  1.09606582E-07 -2.10683627E-06 -2.26112170E-02  2.25914372E-02 -6.57871048E-07
  1.57212971E-05  2.04774523E-05  1.86727938E-05 -3.54374835E-01 -4.81740711E-05
  4.69401740E-05  2.71300421E-05 -5.07599914E-01  4.19965528E-06  4.71693023E-06
  3.68177740E-06 -6.82104774E-07  1.58792769E-03  1.20031929E-03  6.43972105E-06
 -9.46390760E-06  4.56513829E-05  1.05373949E-05  3.80143780E-04 -6.17924163E-05
  1.17457804E-04  3.78221180E-05  1.38182755E-01  1.20953348E-05 -1.72371885E-06
 -7.03575772E-06  6.20271481E-06  2.77106418E-02  2.12802982E-02 -9.35617315E-02
 -4.07243480E-01  9.35799235E-02  4.07174964E-01  6.47343713E-02  3.92763903E-01
  2.99658624E-02  1.58950658E-04  5.38703384E-02 -1.87638492E-02  1.36471954E-05
 -6.48627362E-01  6.75937110E-02  3.55602843E-02  8.63069258E-05  3.33079385E-03
  1.33034958E-02 -7.31747719E-03  1.14262778E-02  2.92135967E-06  1.50832705E-06
 -1.24957852E-02  1.94105363E-02 -3.99474092E-02 -3.39466139E-02  1.61457654E-05
  1.87671649E-01 -1.02931138E-01  1.20602421E-02 -6.26483006E-06  6.33583554E-03
 -7.17128881E-04 -9.01584788E-03 -4.86851180E-03  2.62467184E-06  2.00873720E-06
 -1.16791400E-01  9.94635306E-02 -1.78864139E-02 -1.68030463E-01  3.35762982E-05
  1.88437168E+00  8.92432584E-03 -6.03211771E-01  9.36448717E-05 -3.90021583E-02
 -2.79374884E-02 -3.52324447E-02 -2.30686858E-03  9.39917819E-06 -8.50935171E-07
 -4.00464431E-02 -1.21315234E+00 -4.00317683E-02 -1.21323003E+00 -1.61106933E-04
  2.25335625E+00  1.05273514E-01 -1.46372104E-01  1.11520393E-02 -2.92022709E-01
  3.32680184E-05 -1.72059108E+00  8.56602958E-02 -1.17040517E+00  1.11103840E-04
  1.12438470E-02  5.21012135E-04 -2.73077512E-03 -2.92562173E-03  5.13434860E-06
  3.49899038E-06 -4.24649869E-04  2.85782677E-02 -1.16889324E-02  9.36135696E-02
 -8.25437219E-05 -1.63049194E-01  1.02246019E-01  2.06589828E-01 -9.50608459E-05
  6.29272006E-03  1.10032449E-02  3.99914563E-03  4.35680995E-03 -1.53163615E-07
 -8.51154961E-07  2.45433995E-03  1.51372521E-02  9.60964909E-02  7.78670183E-02
 -2.50890149E-04 -1.69105969E-01  1.90470136E-01  4.36373993E-01 -7.35764170E-04
  5.61458161E-03  9.94569018E-04  2.49111209E-03 -1.20721930E-02 -9.52725836E-06
  7.16086979E-06 -1.01754751E-03  2.90380377E-01 -1.10044983E-03  2.88682848E-01
  5.40079074E-06  1.58469462E-03  4.80854820E-05 -2.42017453E-05 -8.22550994E-05
 -2.16712737E-04 -6.75096293E-02 -1.26779271E-03 -1.51711908E-04 -8.20514533E-04
 -3.73687087E-01  4.58752157E-06  2.81383796E-06 -5.49941527E-06 -3.46256265E-06
 -5.16642011E-03 -5.46909876E-03 -1.28699904E-05  3.95288442E-05 -1.31764800E-05
  6.16915055E-05  1.24708790E-01  8.20054266E-05  2.06660085E-05  2.05065287E-04
  1.87010972E-01  9.09066316E-06  5.01123081E-06 -4.54956001E-06 -3.62704554E-06
  1.28155878E-04  3.41407122E-03  1.69592707E-05 -2.29648704E-05  1.19771937E-04
  4.29343025E-05  3.44692129E-01 -2.93090883E-04  4.39459996E-04  3.24677751E-04
  1.13965065E+00  1.74837272E-05  1.01616824E-06 -4.12033358E-06 -4.15768750E-06
  6.31031385E-03 -1.49711764E-02 -2.00549447E-02 -1.47842482E+00  2.00209796E-02
  1.47884440E+00  6.50745115E-02 -1.27343921E-01  2.16517638E-02  8.72428413E-02
 -1.23084976E-01  4.98850998E-02 -2.99793842E-05 -1.58754199E+00 -2.26590449E+00
  1.19266667E+00  2.12852511E-05 -2.51663091E-03  8.25943410E-03 -2.59811572E-03
  4.36667492E-03 -5.79083393E-08 -3.23346905E-08 -1.11885180E-01  3.99923220E-02
 -3.48943198E-02  1.10944239E-01 -1.17199798E-05  2.59530958E+00 -7.00918436E-01
  6.95576551E-01 -3.37541469E-05 -2.21396555E-02 -4.59652642E-02 -8.16594474E-02
 -4.86297966E-02  2.01164672E-06 -3.05730435E-06  2.94737294E-02 -4.07145642E-02
  6.74491293E-02 -8.36640911E-02 -6.61131452E-05 -7.75212937E-01 -1.96236910E-01
 -5.19590399E-01 -1.60131728E-04 -5.87857189E-03  2.26734266E-02 -3.49459840E-03
  3.11170537E-03 -1.98456576E-06 -1.50278788E-06  3.72818151E-02 -2.39584996E-03
  3.73265124E-02 -3.09380956E-03 -8.98936481E-02  6.75418855E-01 -9.80898510E-02
  6.23480723E-02 -3.32906132E-01 -3.02502213E-01 -2.96374441E-05  2.16845066E+00
 -1.35293791E+00 -1.31227206E+00  5.49190157E-05 -2.57043993E-02  2.10867131E-05
  3.05131742E-02 -5.52472921E-03 -1.93192017E-06  1.62452054E-06  3.45207864E-02
 -6.52441357E-02  1.72469698E-01  7.72645285E-02  3.76406917E-06 -5.25060575E-01
  5.75568450E-01  1.94396116E-01 -8.30058424E-06  3.91150101E-04 -1.81110426E-02
  2.10004844E-02  6.00371391E-03  2.57789702E-06  3.89747523E-07  7.56823366E-02
 -9.66698938E-02 -2.83476762E-01 -1.98488669E-01  3.50913288E-05 -1.42481184E+00
 -1.55156984E+00 -5.27696711E-01  7.62382700E-05  2.44646377E-02  6.19754694E-03
 -1.23379261E-02  9.93238516E-03 -7.27071101E-06  1.61814948E-05 -5.88134520E-02
 -4.56052406E-01 -5.86538729E-02 -4.56567606E-01  9.55768372E-05 -3.98835955E-04
  2.75336984E-05  9.15569823E-04 -8.37346932E-04 -3.70339454E-04 -1.05960941E+00
 -2.11362467E-03  1.71885347E-03  1.35531810E-03  1.21897800E+00  1.06938363E-04
  9.27165695E-05  1.92109043E-05  1.44448538E-05 -1.10067970E-03  2.58555204E-02
 -2.12939480E-05  9.73089861E-05 -6.69281998E-05 -1.24321492E-04 -2.96680660E-02
  2.64985497E-04 -4.55906862E-04 -9.74531758E-05 -1.00666339E-01  7.30638873E-05
 -2.45526122E-05 -5.27946518E-06  2.74437692E-05  7.59151437E-02 -5.01642805E-02
  7.90831386E-06  1.14696881E-05  1.55260547E-04  2.67895962E-04  4.06870736E-02
  1.15981381E-03  3.36190103E-04 -2.23502815E-04 -6.02373101E-02  1.72234748E-04
 -1.21114090E-05 -7.42188191E-05  1.08708007E-04 -3.25141386E-02  1.34006730E-02
 -5.92405502E-02 -1.86699354E-01  5.90323070E-02  1.87303175E-01 -9.92402953E-02
  3.55968350E-01 -2.82023573E-02 -6.92184508E-01  6.89005154E-01  3.16793929E-01
 -1.31798570E-03  1.74940949E+00 -1.30183912E+00 -1.21511385E+00  1.87210570E-03
 -7.79092370E-02 -7.46325615E-02 -1.03188622E-02 -1.76369032E-02  9.42566270E-06
  4.55215615E-05  2.17495875E-02 -7.64432097E-02  4.00521590E-02  8.63836533E-02
 -5.41050254E-05 -3.52404500E-01  4.23647429E-01  4.62313918E-02 -2.01346312E-04
 -6.41190725E-02  2.37833680E-02  1.20540918E-02 -2.14819794E-02  1.09662368E-04
 -4.81732171E-05 -3.05242324E-03  1.94225947E-02 -1.11029068E-01 -2.21611918E-01
  2.66987646E-04 -9.76521353E-01 -2.10542467E-01  2.73799647E-01 -5.42673273E-04
 -1.35190965E-01  1.56852082E-02  7.03845001E-02 -8.00457156E-02 -2.44489675E-05
 -1.90872352E-05  1.55103048E-01 -3.01736446E-01  1.54512063E-01 -3.00276857E-01
 -5.73251031E-01 -9.80924709E-01 -3.85749750E-02 -4.74332531E-01 -1.28583361E-01
 -4.85446829E-01  4.45589546E-05  1.19340306E+00  5.44661617E-01  1.70624246E+00
 -3.35190807E-04 -8.39567634E-02 -1.23732804E-01  3.92696983E-02 -2.94664390E-02